Siesta Version:                                        siesta-3.2-pl-5
Architecture  : x86_64-unknown-linux-gnu--unknown
Compiler flags: mpif90 -g -O2  -xSSE4.2 -msse4.2
PARALLEL version
NetCDF support

* Running in serial mode with MPI
>> Start of run:  24-OCT-2016  19:16:21

                           ***********************       
                           *  WELCOME TO SIESTA  *       
                           ***********************       

reinit: Reading from standard input
************************** Dump of input data file ****************************
MD.TypeOfRun         cg
MD.NumCGsteps         0
MD.MaxCGDispl         0.1  Ang
MD.MaxForceTol        0.002  eV/Ang
%block Atomic_Coordinates_and_Atomic_Species
   -0.12091096   -8.78611828    6.79727722   1
  -13.08390355   -9.12803304   -8.04882827   1
   -7.81380109  -12.46229754  -11.83978958   1
  -10.22888399    8.37728738  -10.64367741   1
   13.08014918   12.84063001   13.51704553   1
    9.01530205  -11.08641868    0.78048654   1
  -13.86190290   -3.71818385   -0.67758199   1
   -2.92008383   -4.88326065   12.74544392   1
    0.74507448   -1.62906963    6.11105578   1
   -1.08409067    0.07736347   -0.54026819   1
   -1.48764258   -3.49607842   -1.32257504   1
   -2.74705372   12.94923820   12.73110055   1
   12.09765917  -11.52298601   11.65897609   1
    8.94411503    2.80589616   -4.37549083   1
   -5.61781477   12.07673160   -4.92560440   1
  -11.71918577   -6.11382230    8.06111063   1
   -5.34432747  -10.43424474    4.92936563   1
    5.60920555    9.33832752   -1.42304108   1
   -2.67710726   10.40921435    5.16071424   1
    8.68475981   13.05261469    1.24447476   1
   -2.34323668   -9.63720090    1.51327467   1
    3.11913297   -4.09783818    7.12416068   1
    4.94069888    2.56981011   -9.96456678   1
   10.53850228  -13.40186773   -3.74315359   1
    0.23980699  -12.79345513   -8.57850917   1
   -0.23594617    9.70682109   -6.28281910   1
   13.02873773   -9.52948021    3.62066515   1
   -4.98346311   -8.50210221    9.29715543   1
  -10.07064762    3.20170790  -12.23773105   1
   -0.32107169   -5.35716722    5.48904255   1
    4.89568693   -5.92792758  -13.51545385   1
  -11.05539984   -8.81900417   -4.86430271   1
  -10.83072097    2.83328599    3.40761813   1
    9.85297512  -11.15009158   12.41877353   1
    8.33369422    6.10140407   12.66650732   1
  -12.09686039   -0.63658201    3.71121261   1
   10.90026441    6.63393652   -7.46442884   1
    7.00074982   -0.67133506   -4.76148835   1
   -5.60839575    2.80708594   -9.53419642   1
   10.95083249    0.50787126    1.41258046   1
   10.90216394    7.18229215   -0.01639762   1
   10.78528931   -2.58883071    9.02614280   1
    4.59409991    0.80062294   11.55820000   1
    8.95156370   -8.98671559   -4.52882050   1
    1.15595600   13.03360782   -1.41467485   1
   -4.08331991   11.07604592   -8.08274243   1
  -13.34774969    7.68874531  -13.12376044   1
    6.72626993    4.97057932   -2.02803035   1
  -12.70231383   -7.33142374   -1.76078926   1
   10.08360837    4.87918288    9.08487498   1
    1.18748320   -9.34022998    0.87975211   1
    7.61972304    2.49264294    1.55241436   1
   -3.26164303   -7.64487380   -5.31338300   1
   -0.06648991   -6.16910748   14.78007409   1
    6.95717576   -5.82956711   11.16924652   1
    4.66243701   -3.10137551   -8.25156568   1
    1.81213723   -8.74941633    3.15071602   1
    5.72237237   11.80169705    9.44840180   1
   -0.36999923   11.79368451    7.40181385   1
   -4.41683803    4.44786662    0.40782004   1
    2.28267224    3.24910419  -12.63370647   1
   -8.97465382    0.74488913   -4.39089730   1
    8.14676219   11.66457921    9.38854898   1
    5.36753847    0.13946610  -10.43674062   1
   -7.38442088   -5.78039990   -6.23946496   1
    7.14058959    5.17380000    3.68486212   1
  -11.69153468   13.24331226  -11.72766421   1
   -3.13717317    7.17177175   -3.96213561   1
   -0.02201908   12.19060227   -3.27571209   1
    7.17354028    3.13411335   -9.33985949   1
   10.47413265  -10.43496483  -13.09544328   1
   13.99738383    9.77407111  -10.08926367   1
   13.39656248   -6.66933454    1.53755083   1
   -3.26429779    3.50169394  -12.80985001   1
   -1.47565855    1.94715988  -12.20923794   1
    3.01700009   10.72997345   10.79863775   1
    2.63317628   -4.29900804   11.27491488   1
    7.72539419   -7.83969627   12.24843552   1
    3.75778295  -10.92789612    7.68723552   1
   -3.97070298   -1.03991351  -11.27518973   1
    7.12710670    7.55376965    9.08966314   1
   -8.83610601    3.99104430   -6.28208981   1
   11.17010338   -8.71797647   -1.45114565   1
  -13.37233463   -0.42124884    5.79732303   1
    0.90645658   -5.63898867   -9.41003911   1
    5.62879760   -9.64189667    2.53123130   1
   -0.71984585   -2.48080082   -8.02694664   1
    9.60964230  -12.77050403    8.12841643   1
   -2.24988821    3.27566347   -2.76984941   1
   -3.67444073    5.82712310  -11.77398416   1
   11.93884319    4.58187072    2.41576065   1
    0.64259028   12.46936148  -11.92836198   1
   -7.72939884    0.40414544  -12.20651758   1
  -10.25978979    9.52361631   -7.38138934   1
   -5.16700489  -13.69639633   -3.82666180   1
  -10.02345984   -6.81376101   -3.98716144   1
   10.19073996   -7.97530482   -7.85939923   1
   13.15335949    9.48815983   11.48917926   1
   -2.16506171   10.20193592  -12.37069298   1
   -0.10756491    6.17413489   -1.26590041   1
   -4.79854161   11.77906739    8.15723172   1
  -12.68401055   -1.60199285   -3.58962157   1
    9.18423667  -13.06815330  -10.72629710   1
   -8.67446427   -4.76699614    5.14726820   1
   -9.87485746   -1.25307235    4.18515093   1
    2.98920340   -2.21033673    5.74192737   1
    9.78273086    9.83431086   -9.36162878   1
   11.43913079    5.35546858   -5.49646610   1
   -4.02918315    1.35443382    2.76486644   1
   -3.21882206   -9.11729828  -14.02793904   1
  -13.79031426   13.70829518   -8.08406511   1
    1.33560221  -11.97114997    7.73620745   1
   11.24133478    6.90047799  -11.15065249   1
   12.98259980    7.70238892    1.00129536   1
   -3.36892865   -2.92086535    8.54276933   1
  -10.58767284  -13.18945011    5.38640380   1
   -7.77705355    4.83628626   -1.62532480   1
    8.67369092    2.49151896  -12.95979217   1
   -8.79009422   -8.62909629   13.05746475   1
    8.89969832    2.09138452  -10.61070328   1
   12.76500803    5.90362046  -12.81296684   1
   -9.29212108  -12.16257900   -0.18216954   1
   -0.90857177  -13.30209915    4.68142907   1
    6.01735946   -8.48981858  -11.26926496   1
  -13.04870730    6.83828644   -6.59409754   1
    2.60765745   12.39254647   -6.87168681   1
   -8.05547365    6.38355605    4.04167876   1
   11.31177057  -13.88924647  -11.30540169   1
   -6.81575056  -11.08136104    6.67586740   1
  -12.88053039   -5.54534914   -6.74240485   1
    5.08187588   11.21106830    7.15111123   1
  -12.86881642  -10.52896239    6.26006541   1
   -2.70056563   -2.57669832  -12.57452281   1
  -10.95844150   -4.90687255   -5.22646635   1
    5.40485703   -4.48716002    7.60299591   1
    6.02927223   -6.43762090    0.18117499   1
    9.62999454    2.15225526    5.23473559   1
    2.83366192   -9.08713455   -0.77080277   1
    6.35841268  -12.81388659   11.37015602   1
   13.10606692  -11.88322650    3.80009659   1
    9.60226476   -3.26616685   -1.75671033   1
   -1.01982710    0.63424060   13.59097516   1
    9.25507342    9.79001345   -2.00654807   1
    3.96554492    9.14661373    6.89056448   1
  -10.84908536   -4.20995244   11.13628285   1
   -6.08784305    8.63231745    1.17937394   1
    1.94598451   -5.81439936    5.84243315   1
   11.46787963   -0.95286393   10.61513085   1
   13.70713241    1.76918648   12.23917346   1
    7.71796355    1.13752262    7.78916606   1
    0.27043202   12.13521885    0.57809734   1
    0.03516347    9.18385059    2.38850431   1
  -12.27600966   -7.04348220    4.90696814   1
    8.31929020   -1.98705627    3.64673636   1
  -13.49882089  -13.37206761   -4.07191613   1
   -2.95601225  -10.21571204   -8.55247677   1
    1.95310966   -2.77276305    1.59982397   1
    8.84810683    8.48914186    5.38859215   1
    1.53518647  -13.76053495   12.54433523   1
    2.16585705    6.85611293   -1.20226547   1
    4.44312102   -7.01144226  -10.06479033   1
    5.73680642  -11.44619219   -9.17112759   1
    5.08459195    1.29473245   13.84083518   1
   -0.22976480    7.19015933  -13.30653515   1
   12.95379041  -12.67043860    9.72656087   1
   -8.22745173   -4.06710822   -0.98012761   1
    5.97687573  -12.49028279  -12.70723899   1
   11.13658889   -9.14257701   -9.73020254   1
  -13.06558024   -9.48317976    9.95141851   1
   -1.17402360    7.26129013    3.10145123   1
   11.76275588   -3.41294058    2.80794528   1
   -7.16056981  -12.35646329   12.17001979   1
    7.31936708   -9.82813268    9.32550999   1
    1.57704685  -13.32406250   -6.49818264   1
  -11.63814326    9.68624170    6.17834745   1
    2.54109014   -6.39376672    3.57342252   1
   -9.59412051   13.49637294    8.78790398   1
   -1.95353078   -4.18171304   -5.43697655   1
   11.58178782   -9.58964445    7.97209212   1
   -2.08579712   -9.53986900    3.83519167   1
    8.25589834   -2.34392853   -8.87707427   1
   -5.10007747   -6.60141976   -8.94475957   1
  -12.37944441   -6.02541465    2.79194921   1
   -6.62824827   -0.79635487    3.04519832   1
   -2.68834658    1.68323814   -8.43327794   1
   -5.81302335    8.41692682    6.40714864   1
    0.79819339   -4.21957244   -1.64291926   1
   12.70628652   -9.29956521   -5.08896424   1
  -10.20791508   -5.06491826   -0.15776935   1
  -12.66208345    5.52477430    5.76022115   1
  -13.60339936   -2.15054380   12.69144450   1
   10.99984210    3.05690047   -5.71944535   1
   -2.01135636   -2.37450774   -3.61945427   1
   -6.09416453    1.06022796    1.66618575   1
   10.34962077    3.46055933   -0.91658455   1
   -9.56063375   -3.02391855  -10.32979552   1
   -6.39824348   -7.11520948  -10.83794084   1
  -11.30594364   -2.26100997   12.48190320   1
    3.36335921   -0.64646092  -11.45254409   1
    1.30324196   -9.78943274   10.13994283   1
    3.94120812  -11.27106662   -1.29156489   1
  -11.59174255    5.86367185   -8.32096564   1
   -5.70994491   -7.28929121   11.26239624   1
    3.61342201   -2.69869266    3.43041616   1
   -9.45752312    5.74425228   12.35135920   1
    9.15082006   10.71654180    1.85838441   1
   -0.71370730    5.70942869   -5.74356294   1
   -1.54448820    7.85775937   -9.22724239   1
   -0.37251830    5.37373328   13.07685925   1
   13.14432339    9.06616135   -2.53975144   1
    4.62870396    9.41521034   -5.23446080   1
   -2.92430400   -5.41782617   -1.03970668   1
    0.13975160   -9.68051523    4.63634295   1
   -4.63411339  -11.08308951   -6.94120702   1
   13.32822713   -1.79787589   -9.46269516   1
  -13.35272856  -12.50178470   -6.35248261   1
   -1.68621852  -11.80981638    0.77891707   1
%endblock Atomic_Coordinates_and_Atomic_Species
%include basicinfo.fdf
************************** End of input data file *****************************

reinit: -----------------------------------------------------------------------
reinit: System Name: Si
reinit: -----------------------------------------------------------------------
reinit: System Label: Si+I                                                        
reinit: -----------------------------------------------------------------------

initatom: Reading input for the pseudopotentials and atomic orbitals ----------
 Species number:            1  Label: Si Atomic number:          14
Ground state valence configuration:   3s02  3p02
Reading pseudopotential information in formatted form from Si.psf

Valence configuration for pseudopotential generation:
3s( 2.00) rc: 1.89
3p( 2.00) rc: 1.89
3d( 0.00) rc: 1.89
4f( 0.00) rc: 1.89
For Si, standard SIESTA heuristics set lmxkb to 3
 (one more than the basis l, including polarization orbitals).
Use PS.lmax or PS.KBprojectors blocks to override.

<basis_specs>
===============================================================================
Si                   Z=  14    Mass=  28.090        Charge= 0.17977+309
Lmxo=1 Lmxkb= 3    BasisType=split      Semic=F
L=0  Nsemic=0  Cnfigmx=3
          n=1  nzeta=1  polorb=0
            splnorm:   0.15000    
               vcte:    0.0000    
               rinn:    0.0000    
                rcs:    0.0000    
            lambdas:    1.0000    
L=1  Nsemic=0  Cnfigmx=3
          n=1  nzeta=1  polorb=1
            splnorm:   0.15000    
               vcte:    0.0000    
               rinn:    0.0000    
                rcs:    0.0000    
            lambdas:    1.0000    
-------------------------------------------------------------------------------
L=0  Nkbl=1  erefs: 0.17977+309
L=1  Nkbl=1  erefs: 0.17977+309
L=2  Nkbl=1  erefs: 0.17977+309
L=3  Nkbl=1  erefs: 0.17977+309
===============================================================================
</basis_specs>

atom: Called for Si                    (Z =  14)

read_vps: Pseudopotential generation method:
read_vps: ATM3      Troullier-Martins                       
Total valence charge:    4.00000

xc_check: Exchange-correlation functional:
xc_check: Ceperley-Alder
V l=0 = -2*Zval/r beyond r=  2.5494
V l=1 = -2*Zval/r beyond r=  2.5494
V l=2 = -2*Zval/r beyond r=  2.5494
V l=3 = -2*Zval/r beyond r=  2.5494
All V_l potentials equal beyond r=  1.8652
This should be close to max(r_c) in ps generation
All pots = -2*Zval/r beyond r=  2.5494
Using large-core scheme for Vlocal

atom: Estimated core radius    2.54944

atom: Including non-local core corrections could be a good idea
atom: Maximum radius for 4*pi*r*r*local-pseudopot. charge    2.85303
atom: Maximum radius for r*vlocal+2*Zval:    2.58151
GHOST: No ghost state for L =  0
GHOST: No ghost state for L =  1
GHOST: No ghost state for L =  2
GHOST: No ghost state for L =  3

KBgen: Kleinman-Bylander projectors: 
   l= 0   rc=  1.936440   el= -0.796617   Ekb=  4.661340   kbcos=  0.299756
   l= 1   rc=  1.936440   el= -0.307040   Ekb=  1.494238   kbcos=  0.301471
   l= 2   rc=  1.936440   el=  0.002313   Ekb= -2.808672   kbcos= -0.054903
   l= 3   rc=  1.936440   el=  0.003402   Ekb= -0.959059   kbcos= -0.005513

KBgen: Total number of  Kleinman-Bylander projectors:   16
atom: -------------------------------------------------------------------------

atom: SANKEY-TYPE ORBITALS:

SPLIT: Orbitals with angular momentum L= 0

SPLIT: Basis orbitals for state 3s

SPLIT: PAO cut-off radius determined from an
SPLIT: energy shift=  0.003675 Ry

   izeta = 1
                 lambda =    1.000000
                     rc =    6.116033
                 energy =   -0.793485
                kinetic =    0.520316
    potential(screened) =   -1.313801
       potential(ionic) =   -3.758588

SPLIT: Orbitals with angular momentum L= 1

SPLIT: Basis orbitals for state 3p

SPLIT: PAO cut-off radius determined from an
SPLIT: energy shift=  0.003675 Ry

   izeta = 1
                 lambda =    1.000000
                     rc =    7.853192
                 energy =   -0.303674
                kinetic =    0.798468
    potential(screened) =   -1.102142
       potential(ionic) =   -3.307548

POLgen: Perturbative polarization orbital with L=  2

POLgen: Polarization orbital for state 3p

   izeta = 1
                     rc =    7.853192
                 energy =    0.331682
                kinetic =    1.088415
    potential(screened) =   -0.756733
       potential(ionic) =   -2.714686
atom: Total number of Sankey-type orbitals:  9

atm_pop: Valence configuration (for local Pseudopot. screening):
 3s( 2.00)                                                            
 3p( 2.00)                                                            
Vna: chval, zval:    4.00000   4.00000

Vna:  Cut-off radius for the neutral-atom potential:   7.853192

atom: _________________________________________________________________________

prinput: Basis input ----------------------------------------------------------

PAO.BasisType split     

%block ChemicalSpeciesLabel
    1   14 Si                      # Species index, atomic number, species label
%endblock ChemicalSpeciesLabel

%block PAO.Basis                 # Define Basis set
Si                    2                    # Species label, number of l-shells
 n=3   0   1                         # n, l, Nzeta 
   6.116   
   1.000   
 n=3   1   1 P   1                   # n, l, Nzeta, Polarization, NzetaPol
   7.853   
   1.000   
%endblock PAO.Basis

prinput: ----------------------------------------------------------------------

Dumping basis to NetCDF file Si.ion.nc
coor:   Atomic-coordinates input format  =     Cartesian coordinates
coor:                                          (in Angstroms)

siesta: Atomic coordinates (Bohr) and species
siesta:     -0.22849 -16.60336  12.84500  1        1
siesta:    -24.72500 -17.24949 -15.21009  1        2
siesta:    -14.76595 -23.55034 -22.37397  1        3
siesta:    -19.32980  15.83079 -20.11364  1        4
siesta:     24.71791  24.26528  25.54352  1        5
siesta:     17.03646 -20.95030   1.47491  1        6
siesta:    -26.19521  -7.02635  -1.28044  1        7
siesta:     -5.51816  -9.22803  24.08541  1        8
siesta:      1.40799  -3.07850  11.54823  1        9
siesta:     -2.04864   0.14620  -1.02096  1       10
siesta:     -2.81124  -6.60663  -2.49931  1       11
siesta:     -5.19118  24.47052  24.05830  1       12
siesta:     22.86127 -21.77530  22.03228  1       13
siesta:     16.90193   5.30238  -8.26848  1       14
siesta:    -10.61614  22.82172  -9.30805  1       15
siesta:    -22.14606 -11.55345  15.23330  1       16
siesta:    -10.09932 -19.71787   9.31515  1       17
siesta:     10.59987  17.64689  -2.68916  1       18
siesta:     -5.05900  19.67057   9.75234  1       19
siesta:     16.41182  24.66588   2.35172  1       20
siesta:     -4.42808 -18.21168   2.85968  1       21
siesta:      5.89431  -7.74379  13.46272  1       22
siesta:      9.33657   4.85624 -18.83031  1       23
siesta:     19.91489 -25.32587  -7.07354  1       24
siesta:      0.45317 -24.17614 -16.21104  1       25
siesta:     -0.44587  18.34324 -11.87281  1       26
siesta:     24.62076 -18.00811   6.84207  1       27
siesta:     -9.41738 -16.06665  17.56908  1       28
siesta:    -19.03077   6.05035 -23.12597  1       29
siesta:     -0.60674 -10.12358  10.37279  1       30
siesta:      9.25151 -11.20216 -25.54052  1       31
siesta:    -20.89169 -16.66551  -9.19220  1       32
siesta:    -20.46710   5.35414   6.43947  1       33
siesta:     18.61943 -21.07063  23.46809  1       34
siesta:     15.74841  11.52999  23.93624  1       35
siesta:    -22.85976  -1.20297   7.01318  1       36
siesta:     20.59852  12.53633 -14.10573  1       37
siesta:     13.22951  -1.26864  -8.99791  1       38
siesta:    -10.59834   5.30463 -18.01703  1       39
siesta:     20.69408   0.95974   2.66939  1       40
siesta:     20.60211  13.57257  -0.03099  1       41
siesta:     20.38125  -4.89218  17.05694  1       42
siesta:      8.68159   1.51296  21.84184  1       43
siesta:     16.91601 -16.98244  -8.55823  1       44
siesta:      2.18444  24.62996  -2.67335  1       45
siesta:     -7.71636  20.93070 -15.27418  1       46
siesta:    -25.22360  14.52963 -24.80032  1       47
siesta:     12.71081   9.39304  -3.83242  1       48
siesta:    -24.00390 -13.85439  -3.32741  1       49
siesta:     19.05527   9.22032  17.16793  1       50
siesta:      2.24402 -17.65048   1.66249  1       51
siesta:     14.39920   4.71041   2.93364  1       52
siesta:     -6.16361 -14.44672 -10.04084  1       53
siesta:     -0.12565 -11.65793  27.93030  1       54
siesta:     13.14716 -11.01629  21.10683  1       55
siesta:      8.81073  -5.86075 -15.59321  1       56
siesta:      3.42444 -16.53401   5.95399  1       57
siesta:     10.81372  22.30198  17.85490  1       58
siesta:     -0.69920  22.28684  13.98741  1       59
siesta:     -8.34662   8.40525   0.77067  1       60
siesta:      4.31363   6.13992 -23.87425  1       61
siesta:    -16.95964   1.40764  -8.29760  1       62
siesta:     15.39516  22.04287  17.74179  1       63
siesta:     10.14318   0.26355 -19.72259  1       64
siesta:    -13.95454 -10.92338 -11.79088  1       65
siesta:     13.49376   9.77707   6.96338  1       66
siesta:    -22.09381  25.02624 -22.16208  1       67
siesta:     -5.92840  13.55269  -7.48735  1       68
siesta:     -0.04161  23.03691  -6.19020  1       69
siesta:     13.55603   5.92262 -17.64978  1       70
siesta:     19.79325 -19.71923 -24.74681  1       71
siesta:     26.45123  18.47032 -19.06595  1       72
siesta:     25.31584 -12.60322   2.90555  1       73
siesta:     -6.16863   6.61725 -24.20712  1       74
siesta:     -2.78859   3.67960 -23.07213  1       75
siesta:      5.70131  20.27672  20.40648  1       76
siesta:      4.97598  -8.12395  21.30651  1       77
siesta:     14.59889 -14.81488  23.14620  1       78
siesta:      7.10118 -20.65074  14.52678  1       79
siesta:     -7.50354  -1.96515 -21.30703  1       80
siesta:     13.46829  14.27456  17.17698  1       81
siesta:    -16.69783   7.54198 -11.87143  1       82
siesta:     21.10844 -16.47459  -2.74227  1       83
siesta:    -25.27006  -0.79605  10.95536  1       84
siesta:      1.71296 -10.65615 -17.78240  1       85
siesta:     10.63689 -18.22055   4.78334  1       86
siesta:     -1.36031  -4.68804 -15.16874  1       87
siesta:     18.15960 -24.13276  15.36049  1       88
siesta:     -4.25167   6.19011  -5.23426  1       89
siesta:     -6.94369  11.01167 -22.24961  1       90
siesta:     22.56115   8.65848   4.56513  1       91
siesta:      1.21432  23.56369 -22.54135  1       92
siesta:    -14.60645   0.76372 -23.06698  1       93
siesta:    -19.38820  17.99703 -13.94881  1       94
siesta:     -9.76423 -25.88245  -7.23135  1       95
siesta:    -18.94160 -12.87615  -7.53465  1       96
siesta:     19.25772 -15.07115 -14.85212  1       97
siesta:     24.85626  17.93003  21.71141  1       98
siesta:     -4.09138  19.27887 -23.37723  1       99
siesta:     -0.20327  11.66743  -2.39221  1      100
siesta:     -9.06793  22.25922  15.41494  1      101
siesta:    -23.96932  -3.02733  -6.78340  1      102
siesta:     17.35570 -24.69524 -20.26977  1      103
siesta:    -16.39237  -9.00832   9.72693  1      104
siesta:    -18.66078  -2.36796   7.90879  1      105
siesta:      5.64878  -4.17693  10.85067  1      106
siesta:     18.48669  18.58416 -17.69092  1      107
siesta:     21.61683  10.12037 -10.38682  1      108
siesta:     -7.61406   2.55951   5.22484  1      109
siesta:     -6.08269 -17.22920 -26.50897  1      110
siesta:    -26.05993  25.90493 -15.27668  1      111
siesta:      2.52392 -22.62220  14.61932  1      112
siesta:     21.24305  13.04002 -21.07169  1      113
siesta:     24.53357  14.55541   1.89217  1      114
siesta:     -6.36636  -5.51964  16.14350  1      115
siesta:    -20.00781 -24.92446  10.17883  1      116
siesta:    -14.69651   9.13926  -3.07142  1      117
siesta:     16.39091   4.70829 -24.49047  1      118
siesta:    -16.61088 -16.30664  24.67504  1      119
siesta:     16.81800   3.95215 -20.05133  1      120
siesta:     24.12238  11.15623 -24.21301  1      121
siesta:    -17.55957 -22.98395  -0.34425  1      122
siesta:     -1.71695 -25.13733   8.84662  1      123
siesta:     11.37117 -16.04344 -21.29583  1      124
siesta:    -24.65849  12.92249 -12.46104  1      125
siesta:      4.92776  23.41853 -12.98561  1      126
siesta:    -15.22265  12.06318   7.63767  1      127
siesta:     21.37616 -26.24688 -21.36412  1      128
siesta:    -12.87991 -20.94075  12.61557  1      129
siesta:    -24.34068 -10.47920 -12.74130  1      130
siesta:      9.60336  21.18586  13.51365  1      131
siesta:    -24.31855 -19.89686  11.82981  1      132
siesta:     -5.10333  -4.86926 -23.76241  1      133
siesta:    -20.70846  -9.27265  -9.87659  1      134
siesta:     10.21370  -8.47951  14.36759  1      135
siesta:     11.39368 -12.16535   0.34237  1      136
siesta:     18.19806   4.06717   9.89222  1      137
siesta:      5.35485 -17.17220  -1.45661  1      138
siesta:     12.01566 -24.21475  21.48649  1      139
siesta:     24.76689 -22.45605   7.18114  1      140
siesta:     18.14566  -6.17216  -3.31970  1      141
siesta:     -1.92719   1.19854  25.68323  1      142
siesta:     17.48956  18.50045  -3.79183  1      143
siesta:      7.49380  17.28460  13.02128  1      144
siesta:    -20.50181  -7.95566  21.04453  1      145
siesta:    -11.50436  16.31272   2.22869  1      146
siesta:      3.67738 -10.98763  11.04060  1      147
siesta:     21.67116  -1.80065  20.05970  1      148
siesta:     25.90274   3.34328  23.12870  1      149
siesta:     14.58484   2.14961  14.71940  1      150
siesta:      0.51104  22.93225   1.09245  1      151
siesta:      0.06645  17.35497   4.51362  1      152
siesta:    -23.19831 -13.31026   9.27283  1      153
siesta:     15.72119  -3.75499   6.89134  1      154
siesta:    -25.50908 -25.26956  -7.69481  1      155
siesta:     -5.58606 -19.30491 -16.16185  1      156
siesta:      3.69084  -5.23976   3.02323  1      157
siesta:     16.72051  16.04216  10.18297  1      158
siesta:      2.90108 -26.00365  23.70537  1      159
siesta:      4.09288  12.95618  -2.27195  1      160
siesta:      8.39629 -13.24971 -19.01970  1      161
siesta:     10.84100 -21.63018 -17.33093  1      162
siesta:      9.60849   2.44669  26.15540  1      163
siesta:     -0.43419  13.58744 -25.14572  1      164
siesta:     24.47913 -23.94367  18.38054  1      165
siesta:    -15.54764  -7.68572  -1.85217  1      166
siesta:     11.29466 -23.60322 -24.01321  1      167
siesta:     21.04511 -17.27697 -18.38743  1      168
siesta:    -24.69038 -17.92062  18.80546  1      169
siesta:     -2.21858  13.72186   5.86090  1      170
siesta:     22.22840  -6.44953   5.30625  1      171
siesta:    -13.53152 -23.35034  22.99801  1      172
siesta:     13.83160 -18.57249  17.62267  1      173
siesta:      2.98019 -25.17884 -12.27979  1      174
siesta:    -21.99291  18.30435  11.67539  1      175
siesta:      4.80197 -12.08247   6.75279  1      176
siesta:    -18.13027  25.50446  16.60674  1      177
siesta:     -3.69164  -7.90230 -10.27440  1      178
siesta:     21.88642 -18.12181  15.06508  1      179
siesta:     -3.94159 -18.02775   7.24746  1      180
siesta:     15.60139  -4.42938 -16.77525  1      181
siesta:     -9.63775 -12.47488 -16.90315  1      182
siesta:    -23.39377 -11.38639   5.27602  1      183
siesta:    -12.52558  -1.50489   5.75459  1      184
siesta:     -5.08024   3.18086 -15.93659  1      185
siesta:    -10.98503  15.90569  12.10776  1      186
siesta:      1.50837  -7.97384  -3.10467  1      187
siesta:     24.01141 -17.57364  -9.61675  1      188
siesta:    -19.29017  -9.57131  -0.29814  1      189
siesta:    -23.92788  10.44031  10.88524  1      190
siesta:    -25.70671  -4.06394  23.98336  1      191
siesta:     20.78670   5.77671 -10.80819  1      192
siesta:     -3.80091  -4.48717  -6.83978  1      193
siesta:    -11.51631   2.00354   3.14864  1      194
siesta:     19.55796   6.53951  -1.73209  1      195
siesta:    -18.06699  -5.71438 -19.52049  1      196
siesta:    -12.09093 -13.44580 -20.48075  1      197
siesta:    -21.36515  -4.27269  23.58739  1      198
siesta:      6.35583  -1.22163 -21.64218  1      199
siesta:      2.46277 -18.49935  19.16172  1      200
siesta:      7.44781 -21.29924  -2.44070  1      201
siesta:    -21.90523  11.08074 -15.72435  1      202
siesta:    -10.79024 -13.77477  21.28285  1      203
siesta:      6.82838  -5.09979   6.48255  1      204
siesta:    -17.87214  10.85507  23.34070  1      205
siesta:     17.29255  20.25134   3.51184  1      206
siesta:     -1.34871  10.78926 -10.85377  1      207
siesta:     -2.91866  14.84902 -17.43697  1      208
siesta:     -0.70396  10.15489  24.71169  1      209
siesta:     24.83918  17.13257  -4.79944  1      210
siesta:      8.74699  17.79218  -9.89170  1      211
siesta:     -5.52614 -10.23821  -1.96476  1      212
siesta:      0.26409 -18.29353   8.76142  1      213
siesta:     -8.75721 -20.94401 -13.11699  1      214
siesta:     25.18671  -3.39749 -17.88191  1      215
siesta:    -25.23301 -23.62496 -12.00446  1      216
siesta:     -3.18649 -22.31733   1.47194  1      217

siesta: System type = bulk      

initatomlists: Number of atoms, orbitals, and projectors:    217  1953  3472

siesta: ******************** Simulation parameters ****************************
siesta:
siesta: The following are some of the parameters of the simulation.
siesta: A complete list of the parameters used, including default values,
siesta: can be found in file out.fdf
siesta:
redata: Non-Collinear-spin run           =     F
redata: SpinPolarized (Up/Down) run      =     F
redata: Number of spin components        =     1
redata: Long output                      =     F
redata: Number of Atomic Species         =        1
redata: Charge density info will appear in .RHO file
redata: Write Mulliken Pop.              =     NO
redata: Mesh Cutoff                      =    50.0000  Ry
redata: Net charge of the system         =     0.0000 |e|
redata: Max. number of SCF Iter          =      500
redata: Performing Pulay mixing using    =     3 iterations
redata: Mix DM in first SCF step ?       =     F
redata: Write Pulay info on disk?        =     F
redata: Discard 1st Pulay DM after  kick =     F
redata: New DM Mixing Weight             =     0.3000
redata: New DM Occupancy tolerance       = 0.000000000001
redata: No kicks to SCF
redata: DM Mixing Weight for Kicks       =     0.5000
redata: DM Tolerance for SCF             =     0.000100
redata: Require Energy convergence for SCF =     F
redata: DM Energy tolerance for SCF      =     0.000100 eV
redata: Require Harris convergence for SCF =     F
redata: DM Harris energy tolerance for SCF =     0.000100 eV
redata: Using Saved Data (generic)   =     F
redata: Use continuation files for DM    =     F
redata: Neglect nonoverlap interactions  =     F
redata: Method of Calculation            =     Diagonalization
redata: Divide and Conquer               =     T
redata: Electronic Temperature           =     0.0018  Ry
redata: Fix the spin of the system       =     F
redata: Dynamics option                  =     CG coord. optimization
redata: Variable cell                    =     F
redata: Use continuation files for CG    =     F
redata: Max atomic displ per move        =     0.1890  Bohr
redata: Maximum number of CG moves       =        0
redata: Force tolerance                  =     0.0001  Ry/Bohr
redata: ***********************************************************************
Total number of electrons:   868.000000
Total ionic charge:   868.000000

* ProcessorY, Blocksize:    1  24

k-point displ. along   1 input, could be:     0.50    0.00
k-point displ. along   2 input, could be:     0.50    0.00
k-point displ. along   3 input, could be:     0.50    0.00
 Kpoints in:            1 . Kpoints trimmed:            1

siesta: k-grid: Number of k-points =     1
siesta: k-grid: Cutoff (effective) =    10.000 Ang
siesta: k-grid: Supercell and displacements
siesta: k-grid:    1   0   0      0.500
siesta: k-grid:    0   1   0      0.500
siesta: k-grid:    0   0   1      0.500
Naive supercell factors:     2    2    2

superc: Internal auxiliary supercell:     2 x     2 x     2  =       8
superc: Number of atoms, orbitals, and projectors:   1736  15624  27776

* Maximum dynamic memory allocated =     2 MB

siesta:                 ==============================
                            Begin CG move =      0
                        ==============================

outcoor: Atomic coordinates (Ang):                          
   -0.12091096   -8.78611828    6.79727722   1       1  Si
  -13.08390355   -9.12803304   -8.04882827   1       2  Si
   -7.81380109  -12.46229754  -11.83978958   1       3  Si
  -10.22888399    8.37728738  -10.64367741   1       4  Si
   13.08014918   12.84063001   13.51704553   1       5  Si
    9.01530205  -11.08641868    0.78048654   1       6  Si
  -13.86190290   -3.71818385   -0.67758199   1       7  Si
   -2.92008383   -4.88326065   12.74544392   1       8  Si
    0.74507448   -1.62906963    6.11105578   1       9  Si
   -1.08409067    0.07736347   -0.54026819   1      10  Si
   -1.48764258   -3.49607842   -1.32257504   1      11  Si
   -2.74705372   12.94923820   12.73110055   1      12  Si
   12.09765917  -11.52298601   11.65897609   1      13  Si
    8.94411503    2.80589616   -4.37549083   1      14  Si
   -5.61781477   12.07673160   -4.92560440   1      15  Si
  -11.71918577   -6.11382230    8.06111063   1      16  Si
   -5.34432747  -10.43424474    4.92936563   1      17  Si
    5.60920555    9.33832752   -1.42304108   1      18  Si
   -2.67710726   10.40921435    5.16071424   1      19  Si
    8.68475981   13.05261469    1.24447476   1      20  Si
   -2.34323668   -9.63720090    1.51327467   1      21  Si
    3.11913297   -4.09783818    7.12416068   1      22  Si
    4.94069888    2.56981011   -9.96456678   1      23  Si
   10.53850228  -13.40186773   -3.74315359   1      24  Si
    0.23980699  -12.79345513   -8.57850917   1      25  Si
   -0.23594617    9.70682109   -6.28281910   1      26  Si
   13.02873773   -9.52948021    3.62066515   1      27  Si
   -4.98346311   -8.50210221    9.29715543   1      28  Si
  -10.07064762    3.20170790  -12.23773105   1      29  Si
   -0.32107169   -5.35716722    5.48904255   1      30  Si
    4.89568693   -5.92792758  -13.51545385   1      31  Si
  -11.05539984   -8.81900417   -4.86430271   1      32  Si
  -10.83072097    2.83328599    3.40761813   1      33  Si
    9.85297512  -11.15009158   12.41877353   1      34  Si
    8.33369422    6.10140407   12.66650732   1      35  Si
  -12.09686039   -0.63658201    3.71121261   1      36  Si
   10.90026441    6.63393652   -7.46442884   1      37  Si
    7.00074982   -0.67133506   -4.76148835   1      38  Si
   -5.60839575    2.80708594   -9.53419642   1      39  Si
   10.95083249    0.50787126    1.41258046   1      40  Si
   10.90216394    7.18229215   -0.01639762   1      41  Si
   10.78528931   -2.58883071    9.02614280   1      42  Si
    4.59409991    0.80062294   11.55820000   1      43  Si
    8.95156370   -8.98671559   -4.52882050   1      44  Si
    1.15595600   13.03360782   -1.41467485   1      45  Si
   -4.08331991   11.07604592   -8.08274243   1      46  Si
  -13.34774969    7.68874531  -13.12376044   1      47  Si
    6.72626993    4.97057932   -2.02803035   1      48  Si
  -12.70231383   -7.33142374   -1.76078926   1      49  Si
   10.08360837    4.87918288    9.08487498   1      50  Si
    1.18748320   -9.34022998    0.87975211   1      51  Si
    7.61972304    2.49264294    1.55241436   1      52  Si
   -3.26164303   -7.64487380   -5.31338300   1      53  Si
   -0.06648991   -6.16910748   14.78007409   1      54  Si
    6.95717576   -5.82956711   11.16924652   1      55  Si
    4.66243701   -3.10137551   -8.25156568   1      56  Si
    1.81213723   -8.74941633    3.15071602   1      57  Si
    5.72237237   11.80169705    9.44840180   1      58  Si
   -0.36999923   11.79368451    7.40181385   1      59  Si
   -4.41683803    4.44786662    0.40782004   1      60  Si
    2.28267224    3.24910419  -12.63370647   1      61  Si
   -8.97465382    0.74488913   -4.39089730   1      62  Si
    8.14676219   11.66457921    9.38854898   1      63  Si
    5.36753847    0.13946610  -10.43674062   1      64  Si
   -7.38442088   -5.78039990   -6.23946496   1      65  Si
    7.14058959    5.17380000    3.68486212   1      66  Si
  -11.69153468   13.24331226  -11.72766421   1      67  Si
   -3.13717317    7.17177175   -3.96213561   1      68  Si
   -0.02201908   12.19060227   -3.27571209   1      69  Si
    7.17354028    3.13411335   -9.33985949   1      70  Si
   10.47413265  -10.43496483  -13.09544328   1      71  Si
   13.99738383    9.77407111  -10.08926367   1      72  Si
   13.39656248   -6.66933454    1.53755083   1      73  Si
   -3.26429779    3.50169394  -12.80985001   1      74  Si
   -1.47565855    1.94715988  -12.20923794   1      75  Si
    3.01700009   10.72997345   10.79863775   1      76  Si
    2.63317628   -4.29900804   11.27491488   1      77  Si
    7.72539419   -7.83969627   12.24843552   1      78  Si
    3.75778295  -10.92789612    7.68723552   1      79  Si
   -3.97070298   -1.03991351  -11.27518973   1      80  Si
    7.12710670    7.55376965    9.08966314   1      81  Si
   -8.83610601    3.99104430   -6.28208981   1      82  Si
   11.17010338   -8.71797647   -1.45114565   1      83  Si
  -13.37233463   -0.42124884    5.79732303   1      84  Si
    0.90645658   -5.63898867   -9.41003911   1      85  Si
    5.62879760   -9.64189667    2.53123130   1      86  Si
   -0.71984585   -2.48080082   -8.02694664   1      87  Si
    9.60964230  -12.77050403    8.12841643   1      88  Si
   -2.24988821    3.27566347   -2.76984941   1      89  Si
   -3.67444073    5.82712310  -11.77398416   1      90  Si
   11.93884319    4.58187072    2.41576065   1      91  Si
    0.64259028   12.46936148  -11.92836198   1      92  Si
   -7.72939884    0.40414544  -12.20651758   1      93  Si
  -10.25978979    9.52361631   -7.38138934   1      94  Si
   -5.16700489  -13.69639633   -3.82666180   1      95  Si
  -10.02345984   -6.81376101   -3.98716144   1      96  Si
   10.19073996   -7.97530482   -7.85939923   1      97  Si
   13.15335949    9.48815983   11.48917926   1      98  Si
   -2.16506171   10.20193592  -12.37069298   1      99  Si
   -0.10756491    6.17413489   -1.26590041   1     100  Si
   -4.79854161   11.77906739    8.15723172   1     101  Si
  -12.68401055   -1.60199285   -3.58962157   1     102  Si
    9.18423667  -13.06815330  -10.72629710   1     103  Si
   -8.67446427   -4.76699614    5.14726820   1     104  Si
   -9.87485746   -1.25307235    4.18515093   1     105  Si
    2.98920340   -2.21033673    5.74192737   1     106  Si
    9.78273086    9.83431086   -9.36162878   1     107  Si
   11.43913079    5.35546858   -5.49646610   1     108  Si
   -4.02918315    1.35443382    2.76486644   1     109  Si
   -3.21882206   -9.11729828  -14.02793904   1     110  Si
  -13.79031426   13.70829518   -8.08406511   1     111  Si
    1.33560221  -11.97114997    7.73620745   1     112  Si
   11.24133478    6.90047799  -11.15065249   1     113  Si
   12.98259980    7.70238892    1.00129536   1     114  Si
   -3.36892865   -2.92086535    8.54276933   1     115  Si
  -10.58767284  -13.18945011    5.38640380   1     116  Si
   -7.77705355    4.83628626   -1.62532480   1     117  Si
    8.67369092    2.49151896  -12.95979217   1     118  Si
   -8.79009422   -8.62909629   13.05746475   1     119  Si
    8.89969832    2.09138452  -10.61070328   1     120  Si
   12.76500803    5.90362046  -12.81296684   1     121  Si
   -9.29212108  -12.16257900   -0.18216954   1     122  Si
   -0.90857177  -13.30209915    4.68142907   1     123  Si
    6.01735946   -8.48981858  -11.26926496   1     124  Si
  -13.04870730    6.83828644   -6.59409754   1     125  Si
    2.60765745   12.39254647   -6.87168681   1     126  Si
   -8.05547365    6.38355605    4.04167876   1     127  Si
   11.31177057  -13.88924647  -11.30540169   1     128  Si
   -6.81575056  -11.08136104    6.67586740   1     129  Si
  -12.88053039   -5.54534914   -6.74240485   1     130  Si
    5.08187588   11.21106830    7.15111123   1     131  Si
  -12.86881642  -10.52896239    6.26006541   1     132  Si
   -2.70056563   -2.57669832  -12.57452281   1     133  Si
  -10.95844150   -4.90687255   -5.22646635   1     134  Si
    5.40485703   -4.48716002    7.60299591   1     135  Si
    6.02927223   -6.43762090    0.18117499   1     136  Si
    9.62999454    2.15225526    5.23473559   1     137  Si
    2.83366192   -9.08713455   -0.77080277   1     138  Si
    6.35841268  -12.81388659   11.37015602   1     139  Si
   13.10606692  -11.88322650    3.80009659   1     140  Si
    9.60226476   -3.26616685   -1.75671033   1     141  Si
   -1.01982710    0.63424060   13.59097516   1     142  Si
    9.25507342    9.79001345   -2.00654807   1     143  Si
    3.96554492    9.14661373    6.89056448   1     144  Si
  -10.84908536   -4.20995244   11.13628285   1     145  Si
   -6.08784305    8.63231745    1.17937394   1     146  Si
    1.94598451   -5.81439936    5.84243315   1     147  Si
   11.46787963   -0.95286393   10.61513085   1     148  Si
   13.70713241    1.76918648   12.23917346   1     149  Si
    7.71796355    1.13752262    7.78916606   1     150  Si
    0.27043202   12.13521885    0.57809734   1     151  Si
    0.03516347    9.18385059    2.38850431   1     152  Si
  -12.27600966   -7.04348220    4.90696814   1     153  Si
    8.31929020   -1.98705627    3.64673636   1     154  Si
  -13.49882089  -13.37206761   -4.07191613   1     155  Si
   -2.95601225  -10.21571204   -8.55247677   1     156  Si
    1.95310966   -2.77276305    1.59982397   1     157  Si
    8.84810683    8.48914186    5.38859215   1     158  Si
    1.53518647  -13.76053495   12.54433523   1     159  Si
    2.16585705    6.85611293   -1.20226547   1     160  Si
    4.44312102   -7.01144226  -10.06479033   1     161  Si
    5.73680642  -11.44619219   -9.17112759   1     162  Si
    5.08459195    1.29473245   13.84083518   1     163  Si
   -0.22976480    7.19015933  -13.30653515   1     164  Si
   12.95379041  -12.67043860    9.72656087   1     165  Si
   -8.22745173   -4.06710822   -0.98012761   1     166  Si
    5.97687573  -12.49028279  -12.70723899   1     167  Si
   11.13658889   -9.14257701   -9.73020254   1     168  Si
  -13.06558024   -9.48317976    9.95141851   1     169  Si
   -1.17402360    7.26129013    3.10145123   1     170  Si
   11.76275588   -3.41294058    2.80794528   1     171  Si
   -7.16056981  -12.35646329   12.17001979   1     172  Si
    7.31936708   -9.82813268    9.32550999   1     173  Si
    1.57704685  -13.32406250   -6.49818264   1     174  Si
  -11.63814326    9.68624170    6.17834745   1     175  Si
    2.54109014   -6.39376672    3.57342252   1     176  Si
   -9.59412051   13.49637294    8.78790398   1     177  Si
   -1.95353078   -4.18171304   -5.43697655   1     178  Si
   11.58178782   -9.58964445    7.97209212   1     179  Si
   -2.08579712   -9.53986900    3.83519167   1     180  Si
    8.25589834   -2.34392853   -8.87707427   1     181  Si
   -5.10007747   -6.60141976   -8.94475957   1     182  Si
  -12.37944441   -6.02541465    2.79194921   1     183  Si
   -6.62824827   -0.79635487    3.04519832   1     184  Si
   -2.68834658    1.68323814   -8.43327794   1     185  Si
   -5.81302335    8.41692682    6.40714864   1     186  Si
    0.79819339   -4.21957244   -1.64291926   1     187  Si
   12.70628652   -9.29956521   -5.08896424   1     188  Si
  -10.20791508   -5.06491826   -0.15776935   1     189  Si
  -12.66208345    5.52477430    5.76022115   1     190  Si
  -13.60339936   -2.15054380   12.69144450   1     191  Si
   10.99984210    3.05690047   -5.71944535   1     192  Si
   -2.01135636   -2.37450774   -3.61945427   1     193  Si
   -6.09416453    1.06022796    1.66618575   1     194  Si
   10.34962077    3.46055933   -0.91658455   1     195  Si
   -9.56063375   -3.02391855  -10.32979552   1     196  Si
   -6.39824348   -7.11520948  -10.83794084   1     197  Si
  -11.30594364   -2.26100997   12.48190320   1     198  Si
    3.36335921   -0.64646092  -11.45254409   1     199  Si
    1.30324196   -9.78943274   10.13994283   1     200  Si
    3.94120812  -11.27106662   -1.29156489   1     201  Si
  -11.59174255    5.86367185   -8.32096564   1     202  Si
   -5.70994491   -7.28929121   11.26239624   1     203  Si
    3.61342201   -2.69869266    3.43041616   1     204  Si
   -9.45752312    5.74425228   12.35135920   1     205  Si
    9.15082006   10.71654180    1.85838441   1     206  Si
   -0.71370730    5.70942869   -5.74356294   1     207  Si
   -1.54448820    7.85775937   -9.22724239   1     208  Si
   -0.37251830    5.37373328   13.07685925   1     209  Si
   13.14432339    9.06616135   -2.53975144   1     210  Si
    4.62870396    9.41521034   -5.23446080   1     211  Si
   -2.92430400   -5.41782617   -1.03970668   1     212  Si
    0.13975160   -9.68051523    4.63634295   1     213  Si
   -4.63411339  -11.08308951   -6.94120702   1     214  Si
   13.32822713   -1.79787589   -9.46269516   1     215  Si
  -13.35272856  -12.50178470   -6.35248261   1     216  Si
   -1.68621852  -11.80981638    0.77891707   1     217  Si

superc: Internal auxiliary supercell:     2 x     2 x     2  =       8
superc: Number of atoms, orbitals, and projectors:   1736  15624  27776

outcell: Unit cell vectors (Ang):
       20.000000    0.000000    0.000000
        0.000000   20.000000    0.000000
        0.000000    0.000000   20.000000

outcell: Cell vector modules (Ang)   :   20.000000   20.000000   20.000000
outcell: Cell angles (23,13,12) (deg):     90.0000     90.0000     90.0000
outcell: Cell volume (Ang**3)        :   8000.0000
siesta: WARNING: Atoms    32   261 too close: rij =    0.375132 Ang
siesta: WARNING: Atoms    44   249 too close: rij =    0.375132 Ang
siesta: WARNING: Atoms   466   695 too close: rij =    0.375132 Ang
siesta: WARNING: Atoms   478   683 too close: rij =    0.375132 Ang
siesta: WARNING: Atoms   900  1129 too close: rij =    0.375132 Ang
siesta: WARNING: Atoms   912  1117 too close: rij =    0.375132 Ang
siesta: WARNING: Atoms  1334  1563 too close: rij =    0.375132 Ang
siesta: WARNING: Atoms  1346  1551 too close: rij =    0.375132 Ang
New_DM. Step:     1
Initializing Density Matrix...

InitMesh: MESH =    90 x    90 x    90 =      729000
InitMesh: Mesh cutoff (required, used) =    50.000    55.966 Ry

* Maximum dynamic memory allocated =   802 MB

stepf: Fermi-Dirac step function

siesta: Program's energy decomposition (eV):
siesta: Ebs     =     -9941.888131
siesta: Eions   =     41317.030375
siesta: Ena     =     14464.483670
siesta: Ekin    =      7787.556898
siesta: Enl     =      4729.913086
siesta: DEna    =         0.000027
siesta: DUscf   =         0.000000
siesta: DUext   =         0.000000
siesta: Exc     =     -6872.462214
siesta: eta*DQ  =         0.000000
siesta: Emadel  =         0.000000
siesta: Emeta   =         0.000000
siesta: Emolmec =         0.000000
siesta: Ekinion =         0.000000
siesta: Eharris =    -20560.908401
siesta: Etot    =    -21207.538908
siesta: FreeEng =    -21207.538908

siesta: iscf   Eharris(eV)      E_KS(eV)   FreeEng(eV)   dDmax  Ef(eV)
siesta:    1   -20560.9084   -21207.5389   -21207.5389  8.9179 -5.5393
timer: Routine,Calls,Time,% = IterSCF        1      89.162  96.72
elaps: Routine,Calls,Wall,% = IterSCF        1      97.226  86.74
siesta:    2   -41856.7873   -18843.1683   -18843.3977  9.5826-10.4654
siesta:    3   -30960.9979   -19353.3887   -19353.5263  9.7699-19.7807
siesta:    4   -28271.1983   -19387.6286   -19387.7734  6.8001-16.8559
siesta:    5   -25568.7799   -18438.9358   -18439.0959  8.7376-10.2318
siesta:    6   -32876.7816   -18252.0932   -18252.3026  6.3598 -8.6691
siesta:    7   -23731.4666   -18353.6877   -18353.7778 25.4854 -9.2138
siesta:    8   -35736.9799   -17515.9013   -17516.0653128.1613-20.1012
siesta:    9   -39870.5431   -15622.4384   -15622.5086 26.9021-32.0953
siesta:   10   -59216.3575   -14248.3406   -14248.4931 10.7367-21.6923
siesta:   11   -48254.5929   -13529.8634   -13529.9673117.7788-30.9109
siesta:   12   -43654.7864   -13953.8750   -13953.9466 73.3553-28.2047
siesta:   13   -53856.3305   -12266.4691   -12266.5464124.4526-45.1080
siesta:   14   -62809.2329   -11529.2390   -11529.3218179.7802-33.1489
siesta:   15   -56229.7675   -11974.4331   -11974.5031142.2949-29.9676
siesta:   16   -68942.3029    -9654.3835    -9654.4598 31.0854-29.4311
siesta:   17   -49634.6187   -10781.8939   -10781.9154140.4318-32.1689
siesta:   18   -40034.2512   -11540.6070   -11540.7345 55.6018-26.4391
siesta:   19   -38499.7159   -12752.1116   -12752.2437 18.6380-21.0857
siesta:   20   -49929.7430   -11455.9854   -11456.1402 98.7278-26.9355
siesta:   21   -46578.2505   -11656.9575   -11657.1091 80.8614-25.2372
siesta:   22   -54047.4191   -10303.8416   -10303.9810117.1710-31.5716
siesta:   23   -65352.3964    -7749.7513    -7749.8024 33.7342-32.7363
siesta:   24   -39878.8978   -11966.4701   -11966.5620 21.7557-17.2127
siesta:   25   -29279.7839   -13756.0332   -13756.1530124.3145-10.0626
siesta:   26   -30065.6521   -13970.3758   -13970.5243 34.8603-14.0741
siesta:   27   -42936.9066   -13009.9539   -13010.0723 21.0780-19.8628
siesta:   28   -52146.3756   -11107.2631   -11107.3906 69.7624-29.5897
siesta:   29   -36398.1063   -12392.8408   -12392.9131 13.7843-20.2611
siesta:   30   -35283.9896   -13409.8895   -13410.0029545.4392-16.2412
siesta:   31   -55490.6659   -11231.5369   -11231.6417156.6707-31.8165
siesta:   32   -46125.4243   -12396.3690   -12396.4501 41.6161-24.7917
siesta:   33   -68966.4611    -8939.8838    -8940.0052213.7104-43.4639
siesta:   34   -54474.5462   -10561.7589   -10561.8453 51.6304-33.2785
siesta:   35   -34551.4136   -13322.7715   -13322.8719 21.1191-11.0134
siesta:   36   -42892.7278   -13303.6403   -13303.7567224.0933-26.1552
siesta:   37   -35119.9359   -13854.2794   -13854.3626 92.3290-20.0733
siesta:   38   -44866.1014   -12960.0625   -12960.1687212.9116-27.7822
siesta:   39   -67763.3910    -8602.5968    -8602.6656 36.1950-33.1932
siesta:   40   -35793.2690   -12479.8709   -12479.9514 31.9342-16.5997
siesta:   41   -34580.5937   -13326.1844   -13326.3322 29.9847-19.0487
siesta:   42   -28994.0541   -13824.2998   -13824.4309 18.2920-10.3106
siesta:   43   -29017.3611   -14537.9320   -14538.0866 47.7923 -8.7364
siesta:   44   -22939.7194   -14913.7646   -14913.9207 18.1768 -6.8621
siesta:   45   -40255.6966   -14703.9636   -14704.1724150.0666-21.2825
siesta:   46   -40522.9927   -14555.2952   -14555.3808185.8832-21.1057
siesta:   47   -33131.6354   -14909.9414   -14910.0513 35.7850-15.9136
siesta:   48   -73907.5090    -9485.4698    -9485.6222 69.3307-36.3792
siesta:   49   -40898.0880   -13081.7333   -13081.8073 27.1444-16.0448
siesta:   50   -27533.0470   -14907.9410   -14908.0873 21.4939 -8.2169
siesta:   51   -48802.4838   -14134.0481   -14134.2161141.4431-31.8437
siesta:   52   -35690.4811   -15050.6640   -15050.7633 40.1890-21.1276
siesta:   53   -30316.6232   -15458.2939   -15458.4201  9.4810-15.6575
siesta:   54   -70515.6911   -10798.2762   -10798.4096101.7245-36.4613
siesta:   55   -56662.1398   -12297.1323   -12297.1978 48.9342-28.3019
siesta:   56   -36061.5154   -14088.8087   -14088.9367 11.9222-15.5100
siesta:   57   -53834.7599   -12208.5097   -12208.6496234.0660-36.1101
siesta:   58   -49487.6064   -12593.6108   -12593.6960173.4075-32.7382
siesta:   59   -50435.8060   -12235.9882   -12236.1095142.9575-32.8301
siesta:   60   -69387.8935    -7475.3683    -7475.4748 49.2332-37.7063
siesta:   61   -45046.9431   -11762.1135   -11762.2219 39.1049-16.7480
siesta:   62   -29825.3718   -13809.9926   -13810.1270 32.7723-11.7451
siesta:   63   -29130.4923   -14065.8840   -14066.0852 17.5139-10.5295
siesta:   64   -46499.0994   -12814.5764   -12814.7374 85.4701-26.4018
siesta:   65   -36686.1106   -13352.1722   -13352.2435 24.2406-18.5337
siesta:   66   -28200.3172   -14402.9973   -14403.1614 21.4387-11.3365
siesta:   67   -44712.3138   -13695.1140   -13695.2524 21.0802-21.4597
siesta:   68   -26286.3275   -14770.9785   -14771.0867 17.5715-10.0875
siesta:   69   -31613.3035   -14901.0520   -14901.2305 16.4539-12.6347
siesta:   70   -30043.6695   -14803.0693   -14803.1913 18.8371-15.1803
siesta:   71   -43178.4881   -14145.1162   -14145.2574 25.0067-21.0072
siesta:   72   -28256.8043   -14758.3122   -14758.3929 55.3557-11.3979
siesta:   73   -49730.1986   -12809.0380   -12809.2014 32.6102-25.7547
siesta:   74   -41474.0455   -13118.1723   -13118.2779 48.2120-23.2833
siesta:   75   -50021.6484   -12444.4980   -12444.5734 38.0612-26.0408
siesta:   76   -40996.2933   -12459.2230   -12459.3171446.8566-20.9321
siesta:   77   -58743.8479    -9405.1942    -9405.3035 80.2074-36.5083
siesta:   78   -60247.0024    -8018.3998    -8018.4911 68.4256-39.1721
siesta:   79   -64654.4192    -7278.1503    -7278.2210 27.8347-26.4496
siesta:   80   -38819.6238   -12279.7945   -12279.9333230.5264-15.9326
siesta:   81   -36558.6452   -12183.0577   -12183.1098178.2563-16.7187
siesta:   82   -50335.8754   -10727.2247   -10727.3021258.6024-34.2879
siesta:   83   -92221.8894    -3381.0301    -3381.1172131.5404-46.2502
siesta:   84   -51763.4196    -9635.3362    -9635.4043216.5194-24.2261
siesta:   85   -47032.1127   -10660.8398   -10660.9377 42.2864-15.8670
siesta:   86   -46987.9753   -10777.3556   -10777.4491109.7377-32.4528
siesta:   87   -38888.6289   -10874.2699   -10874.3862114.0586-24.2101
siesta:   88   -29348.9625   -12240.9547   -12241.0621 30.8978-13.3645
siesta:   89   -37985.7211   -12789.9420   -12790.1199 31.9515-16.5184
siesta:   90   -36641.0022   -13123.8241   -13123.9446 27.4177-21.1346
siesta:   91   -36355.9864   -13004.5219   -13004.5844 36.7567-13.2960
siesta:   92   -24940.3730   -13670.6803   -13670.7956 21.7736 -7.4145
siesta:   93   -34043.5174   -13935.9263   -13936.1340 33.2705-13.7539
siesta:   94   -54422.3621   -12674.2060   -12674.3457307.3529-34.3083
siesta:   95   -38013.8400   -13835.5742   -13835.6117 99.2896-20.6626
siesta:   96   -62578.8629    -8826.2539    -8826.3414111.8812-46.1125
siesta:   97   -61254.7534   -10280.1324   -10280.2127 28.5866-22.3549
siesta:   98   -33259.7937   -12291.4397   -12291.5053 20.9155-19.8993
siesta:   99   -31178.8147   -13512.8162   -13512.9264 21.2202-13.7743
siesta:  100   -40101.9695   -12965.6492   -12965.7701 20.0004-14.6012
siesta:  101   -31921.5014   -13659.3739   -13659.4760 67.9998-15.0066
siesta:  102   -25469.3107   -14044.5806   -14044.6731 12.8306 -9.5215
siesta:  103   -41388.3356   -13975.4289   -13975.5809115.4105-21.2606
siesta:  104   -33362.4641   -14533.4874   -14533.5877 17.3249-13.8698
siesta:  105   -25736.4247   -15319.0365   -15319.1883 17.4754 -9.8661
siesta:  106   -42805.9379   -13667.1320   -13667.2681 16.4869-21.4799
siesta:  107   -25766.4946   -15060.9127   -15060.9617 12.4628 -8.2170
siesta:  108   -28822.4777   -15399.6818   -15399.8586 11.8322 -9.5676
siesta:  109   -50987.3918   -13917.7774   -13917.8965305.9711-30.1418
siesta:  110   -52318.4338   -13613.8203   -13613.9079264.4224-32.9308
siesta:  111   -76070.3034    -8117.6379    -8117.6910356.4410-52.0557
siesta:  112  -115506.8846     3737.0148     3736.9341 73.2204-43.9813
siesta:  113   -56974.9197    -8154.5151    -8154.5861 57.2957-26.9568
siesta:  114   -37922.0428   -11750.6656   -11750.7421110.2933-18.0130
siesta:  115   -28826.9352   -13096.0942   -13096.2489 38.4242-13.4893
siesta:  116   -41130.5609   -13329.7149   -13329.8939 62.4659-14.7525
siesta:  117   -39991.5644   -12661.7266   -12661.8374 68.2151-23.7972
siesta:  118   -31365.8185   -13642.2791   -13642.3867 33.2553-12.9654
siesta:  119   -25854.2797   -14129.1797   -14129.2836 27.4801 -9.2570
siesta:  120   -39186.1933   -13981.1877   -13981.3583 29.1317-13.3664
siesta:  121   -33466.0197   -14288.2679   -14288.4141 47.3069-13.8768
siesta:  122   -28871.9485   -14428.5924   -14428.7229 64.0483-12.3489
siesta:  123   -42615.2658   -13134.9911   -13135.1285 65.9746-24.7355
siesta:  124   -48195.7889   -12901.6154   -12901.7592 89.4424-19.0476
siesta:  125   -49642.3083   -12422.4484   -12422.5167 49.0429-24.6956
siesta:  126   -43052.2648   -11975.1407   -11975.2196575.6046-25.8574
siesta:  127   -62690.7469    -9938.8409    -9938.9338245.8788-44.5359
siesta:  128   -70103.6337    -5256.9952    -5257.0700125.5285-51.5903
siesta:  129   -54747.7727    -7944.5839    -7944.7040 44.9091-25.8130
siesta:  130   -33579.9055   -12314.5128   -12314.6174 56.3616-14.3679
siesta:  131   -26294.2930   -13267.6678   -13267.7555 35.1102 -8.1425
siesta:  132   -37794.5612   -13434.1141   -13434.2931 36.4230-18.4320
siesta:  133   -28646.7016   -14056.3916   -14056.4779 29.2772-11.0759
siesta:  134   -27276.5473   -14412.3904   -14412.5639 26.3662 -9.9882
siesta:  135   -29107.0130   -14488.1082   -14488.2693 25.2147-11.7434
siesta:  136   -44807.3373   -13955.7583   -13955.9391158.5439-20.1015
siesta:  137   -32796.4985   -14643.5849   -14643.6687 20.0071-14.0811
siesta:  138   -47980.8402   -13441.4212   -13441.5455 52.8281-23.6750
siesta:  139   -71484.4611    -9005.2425    -9005.3188213.7235-45.1202
siesta:  140   -64010.8163    -9701.5242    -9701.5977159.0841-40.0882
siesta:  141   -67172.4029    -8436.1839    -8436.2373 56.3116-37.5173
siesta:  142   -55595.1953   -10240.1689   -10240.2761123.4416-28.3633
siesta:  143   -35062.6344   -12100.4823   -12100.5867 57.0548-15.5353
siesta:  144   -29117.1226   -13094.8460   -13094.9845 19.3352 -9.8211
siesta:  145   -55485.2216   -11430.8024   -11430.9722231.4209-41.0498
siesta:  146   -50337.5376   -11838.4105   -11838.4847171.2640-37.4151
siesta:  147   -58659.7227   -10831.1565   -10831.2028191.9937-45.1771
siesta:  148   -81705.1124    -4851.7262    -4851.7826 55.9913-34.1817
siesta:  149   -54962.6457    -9836.9393    -9837.0184 47.4630-26.8015
siesta:  150   -34070.3198   -12448.0344   -12448.1306 43.5288-13.7109
siesta:  151   -31631.6450   -13001.5103   -13001.6531 32.6852-14.7217
siesta:  152   -51998.0940   -11315.7007   -11315.7832 33.1151-20.1844
siesta:  153   -44353.8165   -11860.9135   -11861.0264 90.0228-20.5306
siesta:  154   -34548.0606   -12355.3828   -12355.4174 27.3199-16.4158
siesta:  155   -50776.6903   -11996.6240   -11996.7495220.6470-31.3790
siesta:  156   -53033.0863   -10760.9580   -10761.0348143.3215-29.2898
siesta:  157   -44649.5989   -11359.6252   -11359.6996 81.4622-25.8774
siesta:  158   -63255.0869    -7860.9046    -7861.0241 56.7649-35.3829
siesta:  159   -38254.5108   -12127.8249   -12127.9574 39.2401-17.2655
siesta:  160   -29860.8261   -13567.4614   -13567.5810 23.6962-10.8369
siesta:  161   -38606.9094   -13157.7981   -13157.9476148.0085-20.3561
siesta:  162   -30375.1310   -13694.0923   -13694.2148 19.5969-14.3059
siesta:  163   -26443.2868   -14628.1919   -14628.3781 42.6353 -8.8776
siesta:  164   -37001.2099   -14548.5898   -14548.7047 69.9348-13.9760
siesta:  165   -25911.6094   -15061.4136   -15061.5307 13.0802 -8.8556
siesta:  166   -61040.4616   -12681.6841   -12681.8502294.9851-36.2021
siesta:  167   -57263.3984   -12715.8550   -12715.9317184.0381-35.7543
siesta:  168   -53314.4084   -13174.5664   -13174.6250175.2003-32.8443
siesta:  169   -77386.0622    -5259.1503    -5259.2244148.6557-46.0263
siesta:  170   -48674.2813   -10913.7959   -10913.8684 53.2682-18.9933
siesta:  171   -52862.4539   -12003.2207   -12003.3142240.0900-33.0846
siesta:  172   -58310.1898   -10269.9431   -10270.0130135.8719-43.6287
siesta:  173   -51496.4211   -10398.5143   -10398.5691 65.3012-39.1849
siesta:  174   -83628.2295    -3149.9615    -3150.0469 39.8142-30.5904
siesta:  175   -45601.5256   -10924.8943   -10925.0404888.7156-17.8063
siesta:  176   -44822.3977   -11011.2452   -11011.3624725.4446-17.2476
siesta:  177   -52650.5973    -9228.7094    -9228.8057********-31.0565
siesta:  178   -83126.4378    -1821.6858    -1821.7876205.9536-62.5136
siesta:  179   -48609.6526    -8897.3829    -8897.4586108.7978-26.6903
siesta:  180   -43732.4468   -11221.4308   -11221.5226150.2106-23.6980
siesta:  181   -30520.2711   -12302.9540   -12303.0236 55.7265-15.0727
siesta:  182   -51346.5452   -11609.3578   -11609.5127 87.7699-25.1017
siesta:  183   -32957.1144   -13203.2377   -13203.3207 56.2771-13.4932
siesta:  184   -48047.3114   -12735.0718   -12735.2141198.0829-29.4975
siesta:  185   -35724.8282   -13444.9434   -13444.9896 24.6424-19.3129
siesta:  186   -32422.5297   -14029.7276   -14029.8724 38.0682-13.0248
siesta:  187   -31126.2010   -14422.0595   -14422.1984 29.4465-14.1565
siesta:  188   -35140.0515   -14210.4790   -14210.5770 30.5133-16.2936
siesta:  189   -42364.2038   -13560.4078   -13560.5097159.7364-19.8525
siesta:  190   -29832.8007   -14439.3945   -14439.4969 20.1470-11.3310
siesta:  191   -48568.7667   -13270.4816   -13270.6161 93.9898-25.9144
siesta:  192   -53977.0422   -11877.4450   -11877.5260 88.4858-30.7927
siesta:  193   -45820.0394   -12584.2501   -12584.2722 39.1363-26.9163
siesta:  194   -68011.8528    -7106.0495    -7106.1413 28.2814-37.1264
siesta:  195   -44435.7638   -11740.1743   -11740.2460 57.1761-21.2250
siesta:  196   -31754.4419   -13085.4886   -13085.6427 13.6616-12.9333
siesta:  197   -31127.2056   -14366.0072   -14366.1500 50.6576-14.5095
siesta:  198   -33612.7204   -14336.1020   -14336.2218130.4881-11.9172
siesta:  199   -24326.6508   -14766.8692   -14766.9539 11.0604 -9.1319
siesta:  200   -35032.4324   -14558.0022   -14558.1738 11.4058-17.4931
siesta:  201   -30696.3490   -15319.1997   -15319.3537 31.4897-12.1944
siesta:  202   -22877.3280   -15850.4579   -15850.6126  8.9659 -6.8305
