Siesta Version: siesta-4.0b-485
Architecture  : x86_64-unknown-linux-gnu--unknown
Compiler flags: mpif90 -g -O1   -xSSE4.2 -msse4.2 
PP flags      : -DMPI -DFC_HAVE_FLUSH -DFC_HAVE_ABORT -DGRID_DP -DPHI_GRID_SP -DCDF 
PARALLEL version
NetCDF support

* Running in serial mode with MPI
>> Start of run:  24-OCT-2016  19:27:23

                           ***********************       
                           *  WELCOME TO SIESTA  *       
                           ***********************       

reinit: Reading from standard input
************************** Dump of input data file ****************************
MD.TypeOfRun         cg
MD.NumCGsteps         0
MD.MaxCGDispl         0.1  Ang
MD.MaxForceTol        0.002  eV/Ang
%block Atomic_Coordinates_and_Atomic_Species
   -0.12091096   -8.78611828    6.79727722   1
  -13.08390355   -9.12803304   -8.04882827   1
   -7.81380109  -12.46229754  -11.83978958   1
  -10.22888399    8.37728738  -10.64367741   1
   13.08014918   12.84063001   13.51704553   1
    9.01530205  -11.08641868    0.78048654   1
  -13.86190290   -3.71818385   -0.67758199   1
   -2.92008383   -4.88326065   12.74544392   1
    0.74507448   -1.62906963    6.11105578   1
%endblock Atomic_Coordinates_and_Atomic_Species
%include basicinfo.fdf
************************** End of input data file *****************************

reinit: -----------------------------------------------------------------------
reinit: System Name: Si
reinit: -----------------------------------------------------------------------
reinit: System Label: Si+I                                                        
reinit: -----------------------------------------------------------------------

initatom: Reading input for the pseudopotentials and atomic orbitals ----------
 Species number:            1  Label: Si Atomic number:          14
Ground state valence configuration:   3s02  3p02
Reading pseudopotential information in formatted form from Si.psf

Valence configuration for pseudopotential generation:
3s( 2.00) rc: 1.89
3p( 2.00) rc: 1.89
3d( 0.00) rc: 1.89
4f( 0.00) rc: 1.89
For Si, standard SIESTA heuristics set lmxkb to 3
 (one more than the basis l, including polarization orbitals).
Use PS.lmax or PS.KBprojectors blocks to override.

<basis_specs>
===============================================================================
Si                   Z=  14    Mass=  28.090        Charge= 0.17977+309
Lmxo=1 Lmxkb= 3    BasisType=split      Semic=F
L=0  Nsemic=0  Cnfigmx=3
          n=1  nzeta=1  polorb=0
            splnorm:   0.15000    
               vcte:    0.0000    
               rinn:    0.0000    
               qcoe:    0.0000    
               qyuk:    0.0000    
               qwid:   0.10000E-01
                rcs:    0.0000    
            lambdas:    1.0000    
L=1  Nsemic=0  Cnfigmx=3
          n=1  nzeta=1  polorb=1
            splnorm:   0.15000    
               vcte:    0.0000    
               rinn:    0.0000    
               qcoe:    0.0000    
               qyuk:    0.0000    
               qwid:   0.10000E-01
                rcs:    0.0000    
            lambdas:    1.0000    
-------------------------------------------------------------------------------
L=0  Nkbl=1  erefs: 0.17977+309
L=1  Nkbl=1  erefs: 0.17977+309
L=2  Nkbl=1  erefs: 0.17977+309
L=3  Nkbl=1  erefs: 0.17977+309
===============================================================================
</basis_specs>

atom: Called for Si                    (Z =  14)

read_vps: Pseudopotential generation method:
read_vps: ATM3      Troullier-Martins                       
Total valence charge:    4.00000

xc_check: Exchange-correlation functional:
xc_check: Ceperley-Alder
V l=0 = -2*Zval/r beyond r=  2.5494
V l=1 = -2*Zval/r beyond r=  2.5494
V l=2 = -2*Zval/r beyond r=  2.5494
V l=3 = -2*Zval/r beyond r=  2.5494
All V_l potentials equal beyond r=  1.8652
This should be close to max(r_c) in ps generation
All pots = -2*Zval/r beyond r=  2.5494
Using large-core scheme for Vlocal

atom: Estimated core radius    2.54944

atom: Including non-local core corrections could be a good idea
atom: Maximum radius for 4*pi*r*r*local-pseudopot. charge    2.85303
atom: Maximum radius for r*vlocal+2*Zval:    2.58151
GHOST: No ghost state for L =  0
GHOST: No ghost state for L =  1
GHOST: No ghost state for L =  2
GHOST: No ghost state for L =  3

KBgen: Kleinman-Bylander projectors: 
   l= 0   rc=  1.936440   el= -0.796617   Ekb=  4.661340   kbcos=  0.299756
   l= 1   rc=  1.936440   el= -0.307040   Ekb=  1.494238   kbcos=  0.301471
   l= 2   rc=  1.936440   el=  0.002313   Ekb= -2.808672   kbcos= -0.054903
   l= 3   rc=  1.936440   el=  0.003402   Ekb= -0.959059   kbcos= -0.005513

KBgen: Total number of  Kleinman-Bylander projectors:   16
atom: -------------------------------------------------------------------------

atom: SANKEY-TYPE ORBITALS:

SPLIT: Orbitals with angular momentum L= 0

SPLIT: Basis orbitals for state 3s

SPLIT: PAO cut-off radius determined from an
SPLIT: energy shift=  0.003675 Ry

   izeta = 1
                 lambda =    1.000000
                     rc =    6.116033
                 energy =   -0.793485
                kinetic =    0.520316
    potential(screened) =   -1.313801
       potential(ionic) =   -3.758588

SPLIT: Orbitals with angular momentum L= 1

SPLIT: Basis orbitals for state 3p

SPLIT: PAO cut-off radius determined from an
SPLIT: energy shift=  0.003675 Ry

   izeta = 1
                 lambda =    1.000000
                     rc =    7.853192
                 energy =   -0.303674
                kinetic =    0.798468
    potential(screened) =   -1.102142
       potential(ionic) =   -3.307548

POLgen: Perturbative polarization orbital with L=  2

POLgen: Polarization orbital for state 3p

   izeta = 1
                     rc =    7.853192
                 energy =    0.331682
                kinetic =    1.088415
    potential(screened) =   -0.756733
       potential(ionic) =   -2.714686
atom: Total number of Sankey-type orbitals:  9

atm_pop: Valence configuration (for local Pseudopot. screening):
 3s( 2.00)                                                            
 3p( 2.00)                                                            
Vna: chval, zval:    4.00000   4.00000

Vna:  Cut-off radius for the neutral-atom potential:   7.853192

atom: _________________________________________________________________________

prinput: Basis input ----------------------------------------------------------

PAO.BasisType split     

%block ChemicalSpeciesLabel
    1   14 Si                      # Species index, atomic number, species label
%endblock ChemicalSpeciesLabel

%block PAO.Basis                 # Define Basis set
Si                    2                    # Species label, number of l-shells
 n=3   0   1                         # n, l, Nzeta 
   6.116   
   1.000   
 n=3   1   1 P   1                   # n, l, Nzeta, Polarization, NzetaPol
   7.853   
   1.000   
%endblock PAO.Basis

prinput: ----------------------------------------------------------------------

Dumping basis to NetCDF file Si.ion.nc
coor:   Atomic-coordinates input format  =     Cartesian coordinates
coor:                                          (in Angstroms)

siesta: Atomic coordinates (Bohr) and species
siesta:     -0.22849 -16.60336  12.84500  1        1
siesta:    -24.72500 -17.24949 -15.21009  1        2
siesta:    -14.76595 -23.55034 -22.37397  1        3
siesta:    -19.32980  15.83079 -20.11364  1        4
siesta:     24.71791  24.26528  25.54352  1        5
siesta:     17.03646 -20.95030   1.47491  1        6
siesta:    -26.19521  -7.02635  -1.28044  1        7
siesta:     -5.51816  -9.22803  24.08541  1        8
siesta:      1.40799  -3.07850  11.54823  1        9

siesta: System type = bulk      

initatomlists: Number of atoms, orbitals, and projectors:      9    81   144

siesta: ******************** Simulation parameters ****************************
siesta:
siesta: The following are some of the parameters of the simulation.
siesta: A complete list of the parameters used, including default values,
siesta: can be found in file out.fdf
siesta:
redata: Non-Collinear-spin run           =     F
redata: SpinPolarized (Up/Down) run      =     F
redata: Number of spin components        =     1
redata: Long output                      =     F
redata: Number of Atomic Species         =        1
redata: Charge density info will appear in .RHO file
redata: Write Mulliken Pop.              =     NO
redata: Mesh Cutoff                      =    50.0000  Ry
redata: Net charge of the system         =     0.0000 |e|
redata: Min. number of SCF Iter          =        0
redata: Max. number of SCF Iter          =      500
redata: Mix DM or H after convergence    =     F
redata: Recompute H after scf cycle      =     F
redata: Performing Pulay mixing using    =     3 iterations
redata: Mix DM in first SCF step ?       =     F
redata: Write Pulay info on disk?        =     F
redata: Discard 1st Pulay DM after  kick =     F
redata: New DM Mixing Weight             =     0.3000
redata: New DM Occupancy tolerance       = 0.000000000001
redata: No kicks to SCF
redata: DM Mixing Weight for Kicks       =     0.5000
redata: DM Tolerance for SCF             =     0.000100
redata: Require (free) Energy convergence in SCF =     F
redata: DM (free)Energy tolerance for SCF =     0.000010 eV
redata: Require Harris convergence for SCF =     F
redata: DM Harris energy tolerance for SCF =     0.000010 eV
redata: Using Saved Data (generic)   =     F
redata: Use continuation files for DM    =     F
redata: Neglect nonoverlap interactions  =     F
redata: Method of Calculation            =     Diagonalization
redata: Divide and Conquer               =     T
redata: Electronic Temperature           =     0.0018  Ry
redata: Fix the spin of the system       =     F
redata: Dynamics option                  =     Single-point calculation
redata: ***********************************************************************
Total number of electrons:    36.000000
Total ionic charge:    36.000000

* ProcessorY, Blocksize:    1  24


* Orbital distribution balance (max,min):    81    81

k-point displ. along   1 input, could be:     0.50    0.00
k-point displ. along   2 input, could be:     0.50    0.00
k-point displ. along   3 input, could be:     0.50    0.00
 Kpoints in:            1 . Kpoints trimmed:            1

siesta: k-grid: Number of k-points =     1
siesta: k-grid: Cutoff (effective) =    10.000 Ang
siesta: k-grid: Supercell and displacements
siesta: k-grid:    1   0   0      0.500
siesta: k-grid:    0   1   0      0.500
siesta: k-grid:    0   0   1      0.500
Naive supercell factors:     2    2    2

superc: Internal auxiliary supercell:     2 x     2 x     2  =       8
superc: Number of atoms, orbitals, and projectors:     72    648   1152

                     ====================================
                        Single-point calculation
                     ====================================

outcoor: Atomic coordinates (Ang):                          
   -0.12091096   -8.78611828    6.79727722   1       1  Si
  -13.08390355   -9.12803304   -8.04882827   1       2  Si
   -7.81380109  -12.46229754  -11.83978958   1       3  Si
  -10.22888399    8.37728738  -10.64367741   1       4  Si
   13.08014918   12.84063001   13.51704553   1       5  Si
    9.01530205  -11.08641868    0.78048654   1       6  Si
  -13.86190290   -3.71818385   -0.67758199   1       7  Si
   -2.92008383   -4.88326065   12.74544392   1       8  Si
    0.74507448   -1.62906963    6.11105578   1       9  Si

superc: Internal auxiliary supercell:     2 x     2 x     2  =       8
superc: Number of atoms, orbitals, and projectors:     72    648   1152

outcell: Unit cell vectors (Ang):
       20.000000    0.000000    0.000000
        0.000000   20.000000    0.000000
        0.000000    0.000000   20.000000

outcell: Cell vector modules (Ang)   :   20.000000   20.000000   20.000000
outcell: Cell angles (23,13,12) (deg):     90.0000     90.0000     90.0000
outcell: Cell volume (Ang**3)        :   8000.0000
New_DM. Step:     1
Initializing Density Matrix...
New grid distribution:   1
           1       1:   45    1:   45    1:   45

InitMesh: MESH =    90 x    90 x    90 =      729000
InitMesh: (bp) =    45 x    45 x    45 =       91125
InitMesh: Mesh cutoff (required, used) =    50.000    55.966 Ry
ExtMesh (bp) on 0 =    85 x    85 x    85 =      614125
PhiOnMesh: Number of (b)points on node 0 =                91125
PhiOnMesh: nlist on node 0 =               294100

stepf: Fermi-Dirac step function

siesta: Program's energy decomposition (eV):
siesta: Ebs     =      -264.913127
siesta: Eions   =      1713.609555
siesta: Ena     =       576.467751
siesta: Ekin    =       322.986231
siesta: Enl     =       137.917981
siesta: DEna    =         0.000001
siesta: DUscf   =         0.000000
siesta: DUext   =         0.000000
siesta: Exc     =      -241.432946
siesta: eta*DQ  =         0.000000
siesta: Emadel  =         0.000000
siesta: Emeta   =         0.000000
siesta: Emolmec =         0.000000
siesta: Ekinion =         0.000000
siesta: Eharris =      -922.481644
siesta: Etot    =      -917.670538
siesta: FreeEng =      -918.125097

   scf: iscf   Eharris(eV)      E_KS(eV)   FreeEng(eV)    dDmax  Ef(eV)
   scf:    1     -922.4816     -917.6705     -918.1251  0.71005 -3.8616
timer: Routine,Calls,Time,% =    IterSCF     1       0.813  23.14
   scf:    2    -1097.7647     -901.1243     -901.1243  1.99728 -4.5165
   scf:    3     -929.0442     -916.0495     -916.1866  1.43478 -4.0007
   scf:    4     -930.8253     -915.7368     -915.8485  1.37345 -4.4324
   scf:    5     -955.0785     -914.5263     -914.5263  1.53186 -4.3475
   scf:    6     -930.3224     -917.0700     -917.2093  1.40699 -4.3572
   scf:    7     -967.3523     -914.7530     -914.7530  1.50523 -5.5028
   scf:    8     -964.3349     -915.3735     -915.3735  1.49943 -3.5629
   scf:    9     -930.3966     -917.8129     -917.9841  1.40108 -4.2868
   scf:   10     -957.9472     -915.7119     -915.9041  1.51840 -4.0941
   scf:   11     -964.6295     -915.9832     -915.9832  1.47714 -5.2197
   scf:   12     -940.0226     -917.4958     -917.6319  1.41670 -4.2841
   scf:   13     -945.7410     -917.6596     -917.7652  1.45828 -4.0225
   scf:   14     -955.9772     -916.7625     -916.7625  1.50837 -4.1407
   scf:   15     -953.0040     -917.2289     -917.2289  1.51877 -4.5591
   scf:   16     -927.5232     -918.8959     -918.9863  1.38078 -4.2498
   scf:   17     -987.4941     -915.2045     -915.2045  1.52445 -5.5087
   scf:   18     -935.0940     -918.1627     -918.3146  1.36419 -4.0834
   scf:   19     -951.6531     -917.3476     -917.4726  1.50116 -4.8445
   scf:   20     -964.5641     -916.0287     -916.0287  1.50326 -4.2696
   scf:   21     -944.8158     -917.5878     -917.6347  1.49618 -4.1832
   scf:   22     -942.7120     -917.2738     -917.3643  1.46438 -4.1490
   scf:   23     -972.4489     -914.2263     -914.3209  1.53565 -5.4000
   scf:   24     -955.6905     -915.8335     -915.8336  1.54443 -4.8633
   scf:   25     -958.2521     -916.1743     -916.1844  1.50725 -4.8324
   scf:   26     -959.6491     -915.4394     -915.4394  1.50514 -4.6567
   scf:   27     -948.2351     -916.7083     -916.9016  1.33293 -4.9101
   scf:   28     -941.2969     -917.4384     -917.4993  1.46786 -4.3045
   scf:   29     -949.3577     -916.9731     -916.9741  1.47851 -4.1045
   scf:   30     -946.0571     -916.4173     -916.5284  1.49351 -4.0495
   scf:   31     -940.6548     -917.3036     -917.3457  1.36557 -4.0595
   scf:   32     -932.4506     -917.8947     -918.0058  1.43031 -4.1675
   scf:   33     -984.4534     -914.0550     -914.0550  1.53568 -5.3791
   scf:   34     -931.3331     -917.6706     -917.8220  1.37722 -4.5255
   scf:   35     -969.9769     -915.0174     -915.1100  1.54895 -4.8064
   scf:   36     -951.6694     -916.4036     -916.4459  1.49124 -4.2125
   scf:   37     -951.4899     -917.1786     -917.1786  1.53755 -4.4439
   scf:   38     -959.6488     -916.3504     -916.3504  1.47926 -3.7678
   scf:   39     -939.4441     -917.2957     -917.3813  1.43314 -4.3489
   scf:   40     -967.2893     -915.2974     -915.2974  1.51922 -4.2487
   scf:   41     -928.4018     -918.0748     -918.2910  1.37118 -4.3644
   scf:   42     -952.2401     -916.9000     -917.0023  1.47162 -4.4730
   scf:   43     -972.8590     -915.6060     -915.6060  1.57168 -4.7908
   scf:   44     -936.8262     -917.9629     -918.0769  1.36899 -4.2614
   scf:   45     -952.1774     -916.9369     -916.9625  1.47148 -4.1191
   scf:   46     -984.6076     -914.3870     -914.3870  1.52131 -4.1671
   scf:   47     -930.4669     -917.9634     -917.9711  1.37700 -4.3269
   scf:   48     -958.8519     -916.1070     -916.2162  1.49987 -5.4789
   scf:   49     -981.4918     -914.6449     -914.6449  1.52655 -6.1003
   scf:   50     -929.5717     -918.4449     -918.5262  1.37948 -4.3907
   scf:   51     -953.2878     -917.2914     -917.2914  1.46915 -3.7723
   scf:   52     -960.6718     -916.8555     -916.9142  1.51847 -4.8713
   scf:   53     -928.3532     -918.9941     -919.0622  1.38808 -3.9786
   scf:   54     -945.2381     -917.7577     -917.8317  1.49806 -4.2777
   scf:   55     -971.1410     -915.3090     -915.3090  1.51585 -4.4596
   scf:   56     -945.5913     -917.9401     -918.1672  1.55846 -4.4189
   scf:   57     -953.6500     -917.7626     -917.7626  1.45872 -5.0808
   scf:   58     -966.2731     -916.8918     -916.8918  1.49295 -5.3904
   scf:   59     -947.3177     -917.4931     -917.6033  1.46429 -4.1277
   scf:   60     -935.1515     -918.4240     -918.5581  1.45115 -3.9672
   scf:   61     -958.5831     -916.1958     -916.1966  1.50588 -4.6630
   scf:   62     -961.2073     -916.3134     -916.3852  1.54714 -3.8991
   scf:   63     -939.2650     -918.2980     -918.3056  1.40528 -4.7694
   scf:   64     -983.2612     -915.7747     -915.7747  1.52056 -5.6382
   scf:   65     -960.1164     -916.5308     -916.6034  1.53839 -4.4003
   scf:   66     -940.0242     -918.2597     -918.2638  1.41962 -4.1341
   scf:   67     -954.0688     -916.8603     -916.9381  1.48141 -4.7997
   scf:   68     -973.6161     -914.5181     -914.5183  1.52211 -4.9907
   scf:   69     -975.8029     -913.4910     -913.4910  1.82691 -4.4091
   scf:   70     -937.2736     -916.8457     -916.9656  1.32296 -4.3268
   scf:   71     -975.0166     -913.9750     -913.9750  1.51540 -5.3391
   scf:   72     -964.5151     -915.0320     -915.0320  1.46862 -4.7961
   scf:   73     -929.4212     -916.9375     -917.1853  0.98932 -4.4188
   scf:   74     -952.3474     -915.7435     -915.8342  1.48395 -4.1284
   scf:   75     -946.8912     -916.4327     -916.4328  1.46477 -4.5691
   scf:   76     -957.1555     -915.6303     -915.6313  1.52559 -4.4896
   scf:   77     -948.0060     -915.8296     -915.8298  1.52304 -4.3604
   scf:   78     -961.7169     -914.7610     -914.7613  1.54105 -4.7756
   scf:   79     -974.6567     -914.0014     -914.1089  1.53537 -4.7695
   scf:   80     -941.0906     -917.4896     -917.4942  1.45718 -4.3655
   scf:   81     -968.4701     -915.8874     -915.8874  1.53123 -4.9272
   scf:   82     -954.6497     -916.7851     -916.7851  1.48182 -4.5199
   scf:   83     -925.5160     -918.6641     -918.7615  1.35843 -4.1152
   scf:   84     -983.7255     -915.0997     -915.0997  1.51674 -5.5772
   scf:   85     -951.1316     -916.7590     -916.7590  1.50982 -4.2584
   scf:   86     -950.5474     -917.1106     -917.2557  1.52210 -4.6292
   scf:   87     -959.2812     -916.4215     -916.5593  1.49825 -5.0754
   scf:   88     -935.8914     -918.6297     -918.7247  1.45398 -4.1239
   scf:   89     -947.6930     -918.0609     -918.0609  1.46412 -4.3305
   scf:   90     -941.6260     -918.2944     -918.3936  1.49880 -4.2292
   scf:   91     -960.1446     -916.8401     -916.9581  1.51958 -3.9488
   scf:   92     -943.8928     -918.5461     -918.5957  1.46495 -4.1357
   scf:   93     -942.6339     -918.3821     -918.5046  1.47095 -4.0125
   scf:   94     -951.1798     -917.3576     -917.4410  1.49209 -4.4323
   scf:   95     -949.5683     -916.7385     -916.8489  1.51759 -4.8069
   scf:   96     -937.5000     -918.2384     -918.3561  1.46984 -4.4594
   scf:   97     -959.8219     -916.3486     -916.4406  1.54752 -3.7586
   scf:   98     -953.7391     -917.1497     -917.2447  1.48557 -4.4246
   scf:   99     -930.2509     -918.4942     -918.4961  1.41367 -4.1316
   scf:  100     -988.1117     -914.3668     -914.3668  1.55556 -4.7820
   scf:  101     -965.2773     -915.7312     -915.7320  1.50995 -3.8561
   scf:  102     -943.6650     -917.2600     -917.2661  1.41167 -4.9252
   scf:  103     -971.3461     -914.0224     -914.1138  1.49005 -5.6700
   scf:  104     -953.1818     -915.8535     -915.8536  1.55773 -4.2643
   scf:  105     -958.6268     -916.4373     -916.4373  1.48097 -4.2291
   scf:  106     -962.1190     -915.0584     -915.0586  1.46947 -3.6524
   scf:  107     -966.9127     -915.4250     -915.4250  1.52611 -4.2371
   scf:  108     -926.5840     -917.9532     -918.0743  1.38547 -4.2112
   scf:  109     -959.1969     -916.3181     -916.3181  1.50481 -4.3074
   scf:  110     -975.8059     -914.6984     -914.6984  1.50470 -5.1965
   scf:  111     -947.6185     -916.5133     -916.6082  1.49344 -4.5679
   scf:  112     -938.2318     -917.1203     -917.2513  1.47534 -4.1022
   scf:  113     -980.3551     -914.1946     -914.1946  1.54269 -5.4972
   scf:  114     -947.8172     -916.4168     -916.4170  1.51845 -3.7842
   scf:  115     -936.1743     -917.7662     -917.8893  1.38863 -4.4982
   scf:  116     -971.5481     -914.6849     -914.6849  1.52615 -5.6820
   scf:  117     -950.4269     -916.8040     -916.8041  1.53863 -4.3410
   scf:  118     -933.4363     -918.4988     -918.5003  1.38780 -4.4297
   scf:  119     -956.5914     -916.9467     -916.9467  1.47725 -4.2199
   scf:  120     -966.4403     -916.4151     -916.4151  1.53021 -3.9766
   scf:  121     -947.4536     -917.6119     -917.6134  1.47837 -4.8355
   scf:  122     -949.6470     -917.6656     -917.6657  1.50094 -4.5045
   scf:  123     -966.8156     -916.2882     -916.2882  1.50868 -4.0843
   scf:  124     -943.3764     -917.9204     -917.9328  1.49080 -3.9743
   scf:  125     -950.6421     -917.9350     -917.9701  1.51066 -4.3538
   scf:  126     -966.3442     -916.7732     -916.8192  1.54274 -4.5463
   scf:  127     -938.0175     -918.4172     -918.5123  1.40793 -4.1998
   scf:  128     -980.6220     -914.2001     -914.2136  1.52289 -5.5143
   scf:  129     -945.9444     -917.6717     -917.6755  1.50828 -4.0180
   scf:  130     -947.6892     -918.1843     -918.1852  1.48671 -4.3284
   scf:  131     -951.3186     -917.6151     -917.6152  1.45665 -4.6118
   scf:  132     -971.8030     -915.8565     -915.8565  1.53321 -5.3744
   scf:  133     -962.0949     -915.7515     -915.8112  1.51916 -4.4631
   scf:  134     -941.8714     -917.7977     -917.7977  1.47046 -3.9883
   scf:  135     -980.6925     -915.4382     -915.4382  1.52276 -5.3666
   scf:  136     -955.2733     -916.7084     -916.8667  1.50066 -4.1204
   scf:  137     -927.6538     -918.6743     -918.7664  1.37203 -4.3132
   scf:  138     -955.1150     -916.8912     -916.9515  1.51467 -4.3518
   scf:  139     -944.7199     -918.2760     -918.2760  1.48287 -4.0490
   scf:  140     -945.3246     -917.7518     -917.9427  1.48482 -4.7230
   scf:  141     -961.2114     -916.1410     -916.1410  1.49064 -5.0437
   scf:  142     -943.6327     -917.7322     -917.8106  1.44909 -4.7485
   scf:  143     -945.0135     -918.3537     -918.3695  1.47705 -4.0506
   scf:  144     -956.1309     -917.1116     -917.1560  1.52176 -4.6739
   scf:  145     -960.2764     -916.2673     -916.2674  1.52944 -4.9551
   scf:  146     -963.7569     -915.7857     -915.8577  1.50346 -4.9803
   scf:  147     -941.7252     -918.1273     -918.1479  1.46603 -4.3117
   scf:  148     -977.2193     -915.4955     -915.4955  1.51412 -4.9816
   scf:  149     -943.3778     -917.3796     -917.6134  1.46356 -3.9370
   scf:  150     -937.1900     -918.3140     -918.3234  1.37029 -4.5322
   scf:  151     -972.0609     -916.2749     -916.2749  1.59298 -4.3116
   scf:  152     -932.3057     -918.7094     -918.8352  1.38474 -4.0378
   scf:  153     -946.6252     -917.8360     -917.8360  1.51077 -4.0682
   scf:  154     -963.0576     -916.4155     -916.4367  1.50915 -4.6102
   scf:  155     -931.7636     -918.9611     -919.0950  1.32449 -4.5507
   scf:  156     -959.6352     -916.8297     -916.8298  1.51557 -4.4449
   scf:  157     -944.1118     -917.9875     -917.9921  1.47209 -4.2981
   scf:  158     -946.4710     -918.2833     -918.2837  1.48805 -4.2656
   scf:  159     -967.6272     -916.6950     -916.6951  1.52630 -4.5253
   scf:  160     -938.2844     -918.2988     -918.3390  1.40503 -4.1718
   scf:  161     -972.8073     -914.4322     -914.4322  1.51437 -5.1490
   scf:  162     -950.5876     -917.4257     -917.4258  1.52467 -4.3050
   scf:  163     -944.7243     -918.2887     -918.3074  1.47135 -4.4507
   scf:  164     -948.4617     -918.0530     -918.0530  1.44897 -4.3414
   scf:  165     -970.6505     -916.0111     -916.0111  1.53650 -4.7460
   scf:  166     -932.7793     -919.0582     -919.1021  1.39871 -4.4364
   scf:  167     -971.9878     -916.6929     -916.6929  1.50960 -5.1528
   scf:  168     -965.5661     -916.4709     -916.4709  1.50353 -4.2242
   scf:  169     -928.0464     -919.2665     -919.5153  1.36302 -4.3525
   scf:  170     -955.8604     -917.6748     -917.6748  1.46092 -4.8807
   scf:  171     -951.0807     -918.0603     -918.1348  1.53970 -4.1575
   scf:  172     -936.2079     -919.2873     -919.2873  1.40685 -4.2919
   scf:  173     -965.5286     -917.4379     -917.4379  1.48964 -4.4670
   scf:  174     -967.2759     -916.4917     -916.4917  1.51707 -4.7277
   scf:  175     -928.5468     -919.3933     -919.5186  1.35461 -4.3743
   scf:  176     -958.2212     -917.6728     -917.6728  1.48063 -4.7098
   scf:  177     -978.5276     -916.1952     -916.1952  1.53009 -4.7425
   scf:  178     -933.6811     -919.2562     -919.3657  1.40063 -4.4018
   scf:  179     -947.8365     -918.4401     -918.4401  1.45959 -4.3422
   scf:  180     -972.3306     -916.5074     -916.5074  1.51935 -4.5618
   scf:  181     -931.4458     -919.3835     -919.4062  1.38421 -4.4259
   scf:  182     -964.4579     -917.0933     -917.1909  1.51841 -3.8630
   scf:  183     -959.9849     -917.5487     -917.5487  1.50876 -4.2715
   scf:  184     -927.0679     -919.5958     -919.6540  1.35851 -4.3037
   scf:  185     -970.8100     -916.9827     -916.9827  1.49371 -5.0327
   scf:  186     -948.0978     -917.7748     -917.8574  1.51056 -4.3570
   scf:  187     -930.1802     -919.4263     -919.5715  1.37682 -4.3901
   scf:  188     -960.5769     -917.4082     -917.4082  1.50477 -4.7295
   scf:  189     -954.5125     -917.9952     -917.9975  1.53798 -4.2172
   scf:  190     -934.1306     -919.3894     -919.4434  1.40944 -4.3468
   scf:  191     -955.3322     -917.9631     -917.9631  1.48766 -4.2361
   scf:  192     -943.4257     -918.4500     -918.5497  1.50209 -4.1115
   scf:  193     -943.1886     -918.4990     -918.6361  1.51699 -4.0158
   scf:  194     -954.3899     -917.9416     -917.9416  1.49194 -4.8808
   scf:  195     -954.8687     -917.6927     -917.6927  1.49790 -4.7304
   scf:  196     -966.9868     -916.5109     -916.5172  1.52828 -4.4235
   scf:  197     -946.6684     -918.2359     -918.2498  1.47322 -4.2195
   scf:  198     -963.8021     -916.8056     -916.8056  1.51237 -4.7362
   scf:  199     -954.6466     -917.0517     -917.1302  1.50800 -4.4889
   scf:  200     -945.9039     -918.3388     -918.3394  1.46305 -4.6041
   scf:  201     -970.9964     -914.9677     -914.9677  1.50421 -5.4964
   scf:  202     -953.1425     -916.9369     -916.9369  1.54537 -4.0548
   scf:  203     -953.0873     -917.6686     -917.6686  1.46848 -4.6030
   scf:  204     -955.5380     -917.8663     -917.8663  1.48099 -4.2384
   scf:  205     -974.5191     -915.4855     -915.4855  1.53268 -4.6329
   scf:  206     -931.0213     -918.8009     -918.8033  1.38846 -4.2383
   scf:  207     -967.7526     -916.1058     -916.1058  1.52916 -4.6250
   scf:  208     -992.6247     -914.6779     -914.6779  1.53316 -5.8768
   scf:  209     -932.8421     -918.7825     -918.8493  1.37110 -4.5195
   scf:  210     -951.9201     -917.9148     -917.9148  1.44942 -4.2631
   scf:  211     -953.4330     -917.2363     -917.3653  1.50121 -5.0184
   scf:  212     -943.0539     -918.3021     -918.3975  1.51191 -4.2789
   scf:  213     -944.5113     -918.0911     -918.0955  1.50556 -4.0712
   scf:  214     -972.2365     -915.5463     -915.5463  1.50066 -5.2643
   scf:  215     -940.9429     -918.0446     -918.0448  1.39649 -4.2418
   scf:  216     -942.4230     -918.0201     -918.0306  1.52300 -3.9200
   scf:  217     -960.7853     -917.1202     -917.1392  1.49907 -5.1547
   scf:  218     -955.8860     -917.0430     -917.0446  1.54667 -4.1874
   scf:  219     -966.5160     -916.4427     -916.4538  1.50689 -4.5161
   scf:  220     -959.8994     -916.1985     -916.2809  1.49050 -4.0375
   scf:  221     -960.7276     -916.2984     -916.3003  1.49642 -4.2440
   scf:  222     -943.2752     -917.2648     -917.3241  1.46006 -4.5237
   scf:  223     -941.7732     -917.6051     -917.7714  1.46521 -3.8471
   scf:  224     -933.5136     -918.1110     -918.2220  1.33881 -4.1442
   scf:  225     -957.4518     -916.7667     -916.7667  1.51559 -3.8593
   scf:  226     -956.4569     -916.0712     -916.0957  1.52008 -4.6973
   scf:  227     -964.5099     -915.6691     -915.6691  1.52972 -4.2879
   scf:  228     -941.3685     -917.5277     -917.6224  1.40332 -4.3261
   scf:  229     -954.3808     -916.7689     -916.8900  1.52710 -4.0382
   scf:  230     -967.3106     -914.6662     -914.7560  1.53653 -4.8470
   scf:  231     -932.2400     -917.8818     -917.8821  1.41950 -4.3095
   scf:  232     -958.3948     -916.3347     -916.3436  1.46937 -5.0370
   scf:  233     -991.2261     -914.3279     -914.3279  1.52838 -5.9386
   scf:  234     -927.8614     -918.5000     -918.6292  1.33489 -4.2204
   scf:  235     -956.2485     -917.1987     -917.1987  1.48831 -4.3874
   scf:  236     -966.0858     -916.3535     -916.4544  1.50692 -4.0253
   scf:  237     -926.0993     -918.9974     -919.1651  1.36390 -4.1004
   scf:  238     -962.3054     -916.7133     -916.7143  1.49671 -5.3899
   scf:  239     -992.5614     -912.6183     -912.7102  1.53689 -6.2357
   scf:  240     -943.3447     -917.4057     -917.5721  1.45094 -4.4972
   scf:  241     -955.3167     -917.0061     -917.0061  1.46100 -4.0748
   scf:  242     -981.6941     -915.2773     -915.2773  1.54235 -4.0255
   scf:  243     -936.5843     -918.4362     -918.4947  1.42760 -4.2769
   scf:  244     -948.1987     -917.5454     -917.7171  1.51756 -4.4426
   scf:  245     -968.5961     -916.3802     -916.3802  1.50679 -3.7400
   scf:  246     -930.6476     -919.0282     -919.2303  1.35966 -4.3762
   scf:  247     -956.4303     -917.4042     -917.4042  1.49302 -4.7345
   scf:  248     -955.3938     -917.2597     -917.2597  1.52901 -4.3815
   scf:  249     -941.8322     -918.4875     -918.4875  1.46776 -4.5691
   scf:  250     -966.4595     -916.9274     -916.9274  1.53269 -4.4388
   scf:  251     -972.9366     -916.0122     -916.0122  1.52102 -5.1599
   scf:  252     -949.9758     -917.2800     -917.3444  1.50146 -4.2347
   scf:  253     -954.8014     -917.3050     -917.3050  1.47433 -4.4784
   scf:  254     -963.3683     -916.4800     -916.4859  1.51901 -4.0356
   scf:  255     -969.4481     -915.1656     -915.2880  1.53497 -5.0252
   scf:  256     -932.4636     -918.5036     -918.5052  1.38285 -4.3306
   scf:  257     -963.2899     -916.4951     -916.4951  1.52103 -4.2895
   scf:  258     -968.7429     -915.9247     -915.9247  1.52505 -4.8133
   scf:  259     -930.5668     -918.5986     -918.7165  1.39675 -4.0441
   scf:  260     -970.7987     -915.7688     -915.7688  1.52403 -3.9656
   scf:  261     -942.7145     -917.5406     -917.5538  1.44613 -4.1211
   scf:  262     -938.9408     -918.2658     -918.3456  1.50990 -4.0079
   scf:  263     -956.8411     -916.9460     -917.0621  1.51890 -3.8290
   scf:  264     -938.5438     -918.4966     -918.4967  1.40383 -4.3942
   scf:  265     -964.8131     -916.1445     -916.1445  1.50456 -4.6276
   scf:  266     -951.6261     -917.3872     -917.3877  1.50995 -4.2483
   scf:  267     -930.7323     -918.8266     -918.8495  1.37438 -4.3941
   scf:  268     -963.6044     -916.8025     -916.8025  1.50194 -5.3374
   scf:  269     -950.2148     -917.2049     -917.2049  1.53626 -4.2439
   scf:  270     -950.1944     -917.5246     -917.5535  1.53441 -4.0475
   scf:  271     -972.5788     -916.2251     -916.2251  1.50612 -4.8798
   scf:  272     -964.6755     -916.1189     -916.1189  1.51486 -5.0282
   scf:  273     -955.2835     -916.3391     -916.3392  1.49177 -4.5912
   scf:  274     -934.2016     -918.4653     -918.4663  1.38687 -4.3663
   scf:  275     -973.0928     -916.1056     -916.1056  1.52172 -3.8831
   scf:  276     -950.2332     -917.2784     -917.2784  1.47282 -4.6053
   scf:  277     -978.0597     -914.8799     -914.8799  1.53347 -4.9973
   scf:  278     -956.9402     -915.9842     -916.0833  1.50431 -4.2630
   scf:  279     -941.3668     -917.6717     -917.7686  1.45352 -3.9418
   scf:  280     -968.0163     -915.2231     -915.2231  1.52451 -4.8853
   scf:  281     -957.5249     -916.3065     -916.3068  1.52040 -3.8640
   scf:  282     -931.3596     -918.5338     -918.6505  1.39327 -4.2931
   scf:  283     -982.0386     -915.6228     -915.6228  1.53110 -4.1949
   scf:  284     -949.6783     -917.2232     -917.2259  1.51089 -4.0379
   scf:  285     -942.0386     -918.0599     -918.1622  1.49319 -4.8540
   scf:  286     -960.6738     -916.6568     -916.7532  1.49997 -4.8729
   scf:  287     -930.5541     -919.1470     -919.2280  1.43513 -4.0567
   scf:  288     -944.0928     -918.4938     -918.4938  1.46898 -4.1679
   scf:  289     -963.1221     -917.0966     -917.0966  1.53404 -4.4466
   scf:  290     -962.6386     -916.5333     -916.6067  1.52387 -4.0593
   scf:  291     -949.6076     -917.9630     -917.9633  1.53485 -4.6924
   scf:  292     -943.5621     -918.3647     -918.3906  1.44261 -4.5923
   scf:  293     -973.7851     -916.0256     -916.0256  1.53573 -4.7181
   scf:  294     -942.1394     -918.0423     -918.1037  1.49994 -4.0602
   scf:  295     -948.0174     -918.0875     -918.1741  1.51119 -4.2544
   scf:  296     -963.5902     -917.2544     -917.2544  1.48643 -4.8028
   scf:  297     -964.9477     -916.7546     -916.7546  1.51032 -5.1928
   scf:  298     -960.7180     -916.6460     -916.7388  1.50877 -4.1393
   scf:  299     -939.4285     -918.1942     -918.2252  1.46158 -4.0600
   scf:  300     -960.6420     -916.6880     -916.6880  1.50358 -3.4175
   scf:  301     -966.8478     -916.0307     -916.0335  1.52630 -3.6237
   scf:  302     -928.7955     -918.8349     -918.9794  1.36090 -4.3431
   scf:  303     -978.8958     -915.7627     -915.7627  1.51381 -4.0201
   scf:  304     -954.4923     -916.9676     -917.0814  1.49461 -3.8741
   scf:  305     -931.3273     -918.4594     -918.4595  1.37381 -4.3046
   scf:  306     -973.6816     -915.6735     -915.6735  1.51843 -4.9563
   scf:  307     -948.0964     -917.1735     -917.2522  1.52832 -4.1045
   scf:  308     -940.1131     -917.8841     -917.8865  1.38537 -4.4863
   scf:  309     -960.0214     -916.6521     -916.6564  1.47677 -4.1520
   scf:  310     -964.6492     -916.3409     -916.3523  1.51972 -4.5546
   scf:  311     -931.5280     -918.7802     -918.7802  1.38203 -4.2887
   scf:  312     -957.3677     -917.4611     -917.4611  1.47971 -4.5375
   scf:  313     -968.4878     -916.3688     -916.3688  1.50139 -4.0258
   scf:  314     -948.0404     -917.7784     -917.7987  1.52469 -4.3536
   scf:  315     -966.1420     -916.7457     -916.7457  1.50624 -4.7621
   scf:  316     -971.0592     -916.1520     -916.1520  1.49174 -5.3784
   scf:  317     -937.4973     -917.6763     -917.7696  1.47965 -3.9659
   scf:  318     -962.9626     -916.1716     -916.1716  1.48631 -3.9007
   scf:  319     -961.7197     -915.8320     -915.9828  1.49869 -3.8911
   scf:  320     -967.7371     -915.1030     -915.1030  1.52448 -3.9675
   scf:  321     -959.5527     -915.0929     -915.1407  1.49065 -4.9855
   scf:  322     -942.9845     -917.2234     -917.3267  1.42882 -3.9248
   scf:  323     -989.8453     -913.4684     -913.4684  1.52491 -5.9610
   scf:  324     -940.0874     -917.0485     -917.1661  1.50166 -3.9501
   scf:  325     -952.9553     -916.0948     -916.0969  1.46335 -4.8742
   scf:  326     -981.3022     -913.5371     -913.5371  1.84840 -5.1438
   scf:  327     -949.2535     -914.8534     -915.0175  1.53841 -3.9795
   scf:  328     -957.9530     -915.4697     -915.4698  1.48283 -4.2683
   scf:  329     -954.2462     -915.1304     -915.1305  1.48296 -4.7858
   scf:  330     -971.4191     -913.8364     -913.8528  1.54532 -4.2749
   scf:  331     -936.0199     -916.4502     -916.5054  1.41054 -4.1804
   scf:  332     -952.9808     -916.1597     -916.1597  1.45035 -4.9102
   scf:  333     -973.6418     -913.9745     -913.9745  1.51028 -5.8557
   scf:  334     -945.5420     -916.3366     -916.4569  1.35017 -4.2494
   scf:  335     -952.2141     -915.6528     -915.6528  1.48055 -4.3939
   scf:  336     -984.9080     -913.2349     -913.2349  1.50517 -5.7411
   scf:  337     -943.4835     -916.5090     -916.6140  1.52590 -4.0256
   scf:  338     -961.3369     -915.3929     -915.3929  1.46464 -5.4934
   scf:  339     -956.5643     -915.7427     -915.7427  1.46950 -4.8760
   scf:  340     -974.6542     -914.2641     -914.2642  1.54381 -4.2988
   scf:  341     -952.3164     -917.2367     -917.2367  1.47690 -4.2653
   scf:  342     -966.7491     -915.8329     -915.8329  1.50938 -4.6525
   scf:  343     -968.4035     -915.5868     -915.5868  1.51507 -4.3420
   scf:  344     -928.0648     -918.2849     -918.4360  1.36131 -4.3155
   scf:  345     -981.9439     -915.1981     -915.1981  1.50084 -5.2725
   scf:  346     -951.4984     -916.6239     -916.6239  1.52088 -4.3015
   scf:  347     -932.2825     -918.4475     -918.5585  1.34287 -4.6094
   scf:  348     -958.3387     -916.7613     -916.7613  1.50686 -4.7128
   scf:  349     -949.7309     -917.4301     -917.4463  1.52023 -4.2150
   scf:  350     -955.7607     -917.0867     -917.0867  1.50750 -4.4516
   scf:  351     -943.1901     -918.0757     -918.0757  1.47583 -4.2994
   scf:  352     -971.2048     -916.0226     -916.0226  1.53435 -4.8731
   scf:  353     -968.5356     -916.3359     -916.5285  1.51748 -4.1428
   scf:  354     -929.6159     -918.8884     -919.0254  1.38610 -4.4120
   scf:  355     -945.7008     -918.2161     -918.2161  1.45753 -4.4387
   scf:  356     -951.6110     -917.2946     -917.3859  1.52489 -4.4882
   scf:  357     -949.5830     -918.0883     -918.0883  1.52818 -4.4335
   scf:  358     -950.4622     -917.7238     -917.7239  1.49064 -4.4614
   scf:  359     -968.0834     -916.5722     -916.5722  1.50912 -5.1948
   scf:  360     -947.5559     -917.5785     -917.5927  1.51222 -4.0159
   scf:  361     -965.7899     -916.6752     -916.6752  1.51773 -4.3033
   scf:  362     -944.8227     -918.0487     -918.0581  1.48145 -4.3540
   scf:  363     -978.5681     -915.0838     -915.0838  1.53233 -5.5077
   scf:  364     -950.2631     -917.0671     -917.1410  1.46929 -4.2406
   scf:  365     -936.3591     -918.0577     -918.0750  1.38860 -4.5891
   scf:  366     -984.3294     -914.6258     -914.6258  1.52570 -5.9401
   scf:  367     -931.8143     -917.8189     -917.8192  1.35600 -4.0568
   scf:  368     -945.9528     -917.1860     -917.2680  1.39265 -4.5158
   scf:  369     -978.5331     -914.5027     -914.5027  1.50935 -5.6191
   scf:  370     -937.4399     -917.5967     -917.7494  1.48229 -4.1414
   scf:  371     -959.8299     -915.8506     -915.8538  1.50888 -4.4014
   scf:  372     -979.4903     -913.6901     -913.6901  1.80267 -5.2144
   scf:  373     -952.9904     -914.9835     -914.9838  1.53875 -4.2202
   scf:  374     -962.4289     -914.5703     -914.5703  1.50314 -4.4868
   scf:  375     -963.8785     -914.5894     -914.5894  1.51885 -4.2434
   scf:  376     -948.1919     -915.8300     -915.9931  1.40566 -4.8177
   scf:  377     -946.1979     -915.9122     -916.0092  1.48654 -3.8185
   scf:  378     -942.1803     -916.4169     -916.4169  1.43736 -4.2724
   scf:  379     -993.1803     -912.5356     -912.5356  1.53659 -6.0501
   scf:  380     -943.1559     -915.7159     -915.8564  1.49254 -4.0562
   scf:  381     -939.1219     -916.5875     -916.6463  1.37942 -4.2861
   scf:  382     -948.5933     -916.3892     -916.4996  1.50990 -3.6887
   scf:  383     -939.0841     -917.4184     -917.4257  1.50010 -4.4318
   scf:  384     -949.2994     -916.1942     -916.2304  1.53448 -4.0839
   scf:  385     -972.4007     -914.3914     -914.3924  1.64529 -4.2786
   scf:  386     -935.4528     -917.0441     -917.1797  1.40210 -4.5796
   scf:  387     -981.7274     -913.9203     -913.9203  1.54661 -5.7139
   scf:  388     -951.9079     -916.0276     -916.0276  1.47957 -4.0023
   scf:  389     -927.3548     -917.9999     -918.0226  1.36091 -4.2685
   scf:  390     -952.5148     -916.6817     -916.8180  1.50024 -3.7674
   scf:  391     -930.5843     -918.5253     -918.6629  1.40626 -4.2855
   scf:  392     -939.9129     -918.0516     -918.0517  1.39777 -4.3425
   scf:  393     -959.5854     -916.0668     -916.1030  1.51191 -4.7172
   scf:  394     -952.3420     -917.1641     -917.1641  1.53389 -4.0342
   scf:  395     -971.6834     -916.2093     -916.2093  1.52451 -5.2231
   scf:  396     -961.5578     -916.9649     -916.9649  1.47640 -4.8923
   scf:  397     -951.4725     -917.3981     -917.4175  1.53584 -4.7410
   scf:  398     -953.1530     -917.0124     -917.0156  1.47437 -4.2223
   scf:  399     -946.4057     -917.5610     -917.5634  1.49240 -4.1763
   scf:  400     -974.3672     -915.5483     -915.5483  1.52161 -5.3261
   scf:  401     -963.9210     -916.3483     -916.4273  1.50547 -4.5200
   scf:  402     -930.2471     -918.7084     -918.8788  1.37901 -4.4417
   scf:  403     -963.6718     -916.7174     -916.7174  1.50576 -4.3020
   scf:  404     -946.3911     -917.8936     -917.8936  1.44732 -4.7404
   scf:  405     -953.1315     -917.8109     -917.8109  1.51597 -4.1526
   scf:  406     -969.4713     -916.2421     -916.2421  1.50164 -4.3994
   scf:  407     -968.1440     -915.5131     -915.5131  1.51711 -4.7465
   scf:  408     -967.3334     -915.3405     -915.4286  1.50451 -4.2559
   scf:  409     -938.0372     -917.7975     -917.9477  1.44049 -4.2735
   scf:  410     -989.0099     -914.3000     -914.3000  1.53056 -5.9376
   scf:  411     -949.1208     -916.6459     -916.6469  1.47982 -4.5837
   scf:  412     -936.4074     -917.8048     -917.9157  1.38932 -4.3606
   scf:  413     -957.0296     -916.8922     -917.0505  1.50958 -4.8256
   scf:  414     -940.0725     -918.4579     -918.4840  1.47751 -4.3191
   scf:  415     -949.0319     -917.7448     -917.7448  1.47664 -4.1453
   scf:  416     -949.8516     -917.2119     -917.2119  1.51340 -4.1073
   scf:  417     -974.4050     -914.6396     -914.6629  1.54795 -5.2538
   scf:  418     -932.7237     -918.6239     -918.7100  1.37781 -4.5195
   scf:  419     -961.1911     -916.8060     -916.8060  1.53752 -3.9042
   scf:  420     -964.7360     -916.8065     -916.8066  1.52566 -4.3093
   scf:  421     -930.5421     -919.0940     -919.1019  1.38373 -4.1840
   scf:  422     -968.0677     -916.6360     -916.6360  1.49126 -5.3723
   scf:  423     -941.6676     -917.9342     -918.0321  1.48295 -4.0923
   scf:  424     -946.9438     -918.0499     -918.2032  1.50502 -4.2161
   scf:  425     -965.6051     -916.7541     -916.7541  1.51187 -4.3593
   scf:  426     -958.3808     -916.8283     -916.8283  1.46473 -5.0234
   scf:  427     -961.8943     -916.0960     -916.0961  1.51390 -4.4787
   scf:  428     -943.6418     -917.9050     -918.0285  1.45656 -4.5791
   scf:  429     -940.0487     -918.3297     -918.3407  1.47762 -4.1444
   scf:  430     -966.5415     -916.5338     -916.5338  1.51604 -4.4630
   scf:  431     -931.9030     -918.9416     -918.9442  1.42873 -4.2547
   scf:  432     -962.9442     -916.6408     -916.7477  1.52061 -3.6214
   scf:  433     -959.5851     -917.2097     -917.2097  1.51681 -3.9996
   scf:  434     -930.1720     -919.2280     -919.2298  1.37196 -4.3567
   scf:  435     -974.2274     -916.4356     -916.4356  1.51638 -5.2597
   scf:  436     -944.1026     -917.7383     -917.9177  1.52334 -4.3049
   scf:  437     -938.4180     -918.5308     -918.5393  1.41469 -4.5881
   scf:  438     -961.2033     -917.2868     -917.2868  1.50908 -3.8113
   scf:  439     -927.5061     -919.3738     -919.5308  1.36511 -4.1330
   scf:  440     -947.2141     -917.7721     -917.8309  1.51156 -4.5008
   scf:  441     -955.4798     -917.5296     -917.6715  1.50008 -4.0632
   scf:  442     -938.3204     -918.9363     -919.0344  1.46268 -4.1519
   scf:  443     -950.2337     -918.5504     -918.5504  1.45598 -4.4082
   scf:  444     -940.3721     -918.3498     -918.5428  1.47046 -4.2232
   scf:  445     -938.2800     -918.6042     -918.6042  1.42734 -4.4732
   scf:  446     -938.2752     -918.4880     -918.5230  1.42821 -4.1605
   scf:  447     -990.0013     -914.7988     -914.7988  1.52176 -5.5928
   scf:  448     -948.1952     -916.5774     -916.7175  1.49824 -4.0285
   scf:  449     -960.3886     -916.0272     -916.1375  1.51474 -4.0290
   scf:  450     -940.0571     -917.2182     -917.2677  1.47165 -4.3768
   scf:  451     -949.9106     -917.1859     -917.2287  1.49299 -4.8233
   scf:  452     -938.8349     -918.0110     -918.0135  1.41742 -4.5354
   scf:  453     -946.1962     -917.5416     -917.7006  1.49030 -4.7087
   scf:  454     -955.5881     -916.6888     -916.7697  1.51042 -4.6682
   scf:  455     -945.4255     -917.9862     -917.9862  1.51240 -4.1743
   scf:  456     -949.9916     -917.3737     -917.3737  1.47570 -4.4450
   scf:  457     -962.7232     -916.0867     -916.1841  1.53056 -4.1466
   scf:  458     -936.3022     -918.3233     -918.4529  1.39311 -4.2481
   scf:  459     -962.7388     -916.8900     -916.8900  1.52484 -4.1410
   scf:  460     -964.1540     -916.0912     -916.0912  1.51862 -4.2142
   scf:  461     -930.7765     -918.6161     -918.6737  1.38848 -4.3409
   scf:  462     -958.7733     -916.9446     -916.9446  1.47961 -4.5426
   scf:  463     -959.0197     -916.6181     -916.6575  1.51038 -3.8607
   scf:  464     -927.5984     -918.9045     -919.0805  1.32721 -4.2655
   scf:  465     -980.2942     -915.6092     -915.6092  1.52742 -4.0874
   scf:  466     -950.1489     -917.7975     -917.7975  1.52053 -3.9047
   scf:  467     -937.1004     -918.6653     -918.7734  1.41504 -4.6006
   scf:  468     -978.3627     -914.1343     -914.1343  1.53931 -5.7633
   scf:  469     -951.9227     -917.3521     -917.3521  1.52478 -4.5224
   scf:  470     -946.1862     -918.0561     -918.0567  1.46874 -4.6427
   scf:  471     -958.1161     -917.5523     -917.5523  1.47806 -4.5420
   scf:  472     -979.4202     -915.0727     -915.0727  1.56957 -3.8523
   scf:  473     -934.1627     -918.8919     -919.0636  1.41885 -4.1108
   scf:  474     -962.6927     -916.3356     -916.3840  1.48857 -5.2866
   scf:  475     -992.5875     -913.8971     -913.8971  1.53249 -4.7560
   scf:  476     -938.5452     -918.3578     -918.3716  1.38507 -4.5605
   scf:  477     -954.0807     -917.6581     -917.6990  1.45905 -4.7727
   scf:  478     -963.0442     -916.5797     -916.6388  1.51588 -5.0438
   scf:  479     -947.6932     -917.6723     -917.8062  1.54717 -3.8366
   scf:  480     -954.5389     -917.4126     -917.4127  1.49554 -4.5495
   scf:  481     -969.7567     -916.1677     -916.1677  1.47728 -5.0928
   scf:  482     -963.5492     -916.1002     -916.1003  1.51649 -4.8385
   scf:  483     -948.5484     -917.4916     -917.4916  1.47522 -4.2852
   scf:  484     -959.7121     -916.7798     -916.8621  1.49915 -3.6467
   scf:  485     -976.5026     -915.4637     -915.4637  1.51183 -4.6883
   scf:  486     -940.7380     -917.6705     -917.7952  1.47806 -4.2184
   scf:  487     -949.1272     -917.2694     -917.2720  1.47181 -4.2985
   scf:  488     -943.4892     -917.4640     -917.5716  1.47508 -4.3422
   scf:  489     -963.6891     -916.1649     -916.1649  1.52617 -4.7651
   scf:  490     -943.2398     -917.9481     -918.0558  1.50182 -4.1497
   scf:  491     -946.4099     -917.8072     -917.9018  1.44096 -4.2814
   scf:  492     -957.8339     -916.5801     -916.5938  1.50437 -4.0037
   scf:  493     -948.8379     -916.7789     -916.8171  1.55466 -4.5185
   scf:  494     -941.8123     -917.6836     -917.7324  1.47660 -4.2230
   scf:  495     -981.4487     -914.0482     -914.0482  1.76840 -4.6515
   scf:  496     -948.4183     -915.8915     -916.0462  1.49050 -4.2554
   scf:  497     -960.1972     -915.6935     -915.6935  1.51420 -4.5937
   scf:  498     -968.7140     -915.3772     -915.3772  1.50003 -4.8382
   scf:  499     -930.1723     -918.0245     -918.2357  1.26392 -4.3013
   scf:  500     -963.1061     -916.1607     -916.1607  1.52147 -3.9016
:!: SCF did not converge in maximum number of steps.

Using DM_out to compute the final energy and forces

siesta: E_KS(eV) =             -917.4634

siesta: E_KS - E_eggbox =      -917.4634

siesta: Atomic forces (eV/Ang):
     1    0.001702    0.000493   -0.004501
     2    0.206130   -0.161944   -0.170571
     3   -0.040354    0.042643    0.035141
     4   -0.156413    0.129230    0.147656
     5    0.390149    0.220144   -0.080657
     6    0.000044    0.002783   -0.004604
     7   -0.000239    0.000137    0.002238
     8   -0.388727   -0.215060    0.058739
     9   -0.011726   -0.016702    0.018283
----------------------------------------
   Tot    0.000567    0.001723    0.001724
----------------------------------------
   Max    0.390149
   Res    0.145839    sqrt( Sum f_i^2 / 3N )
----------------------------------------
   Max    0.390149    constrained

Stress-tensor-Voigt (kbar):        0.47        0.22        0.16        0.09        0.05       -0.18
(Free)E + p*V (eV/cell)     -918.8673
Target enthalpy (eV/cell)     -917.4634

siesta: Program's energy decomposition (eV):
siesta: Ebs     =      -298.855856
siesta: Eions   =      1713.609555
siesta: Ena     =       576.467751
siesta: Ekin    =       319.679577
siesta: Enl     =       136.614159
siesta: DEna    =         2.897697
siesta: DUscf   =         1.500046
siesta: DUext   =         0.000000
siesta: Exc     =      -241.013050
siesta: eta*DQ  =         0.000000
siesta: Emadel  =         0.000000
siesta: Emeta   =         0.000000
siesta: Emolmec =         0.000000
siesta: Ekinion =         0.000000
siesta: Eharris =      -963.106137
siesta: Etot    =      -917.463374
siesta: FreeEng =      -917.463374

siesta: Final energy (eV):
siesta:  Band Struct. =    -298.855856
siesta:       Kinetic =     319.679577
siesta:       Hartree =     577.947030
siesta:    Ext. field =       0.000000
siesta:   Exch.-corr. =    -241.013050
siesta:  Ion-electron =   -1422.461229
siesta:       Ion-ion =    -151.615702
siesta:       Ekinion =       0.000000
siesta:         Total =    -917.463374

siesta: Atomic forces (eV/Ang):
siesta:      1    0.001702    0.000493   -0.004501
siesta:      2    0.206130   -0.161944   -0.170571
siesta:      3   -0.040354    0.042643    0.035141
siesta:      4   -0.156413    0.129230    0.147656
siesta:      5    0.390149    0.220144   -0.080657
siesta:      6    0.000044    0.002783   -0.004604
siesta:      7   -0.000239    0.000137    0.002238
siesta:      8   -0.388727   -0.215060    0.058739
siesta:      9   -0.011726   -0.016702    0.018283
siesta: ----------------------------------------
siesta:    Tot    0.000567    0.001723    0.001724

siesta: Stress tensor (static) (eV/Ang**3):
siesta:     0.000294    0.000055   -0.000116
siesta:     0.000054    0.000136    0.000031
siesta:    -0.000113    0.000029    0.000097

siesta: Cell volume =       8000.000000 Ang**3

siesta: Pressure (static):
siesta:                Solid            Molecule  Units
siesta:          -0.00000191         -0.00000666  Ry/Bohr**3
siesta:          -0.00017549         -0.00061193  eV/Ang**3
siesta:          -0.28116591         -0.98043378  kBar
(Free)E+ p_basis*V_orbitals  =        -909.113135
(Free)Eharris+ p_basis*V_orbitals  =        -954.755899

timer: Elapsed wall time (sec) =     468.626
timer: CPU execution times (sec):

Routine            Calls   Time/call    Tot.time        %
siesta                 1     372.379     372.379   100.00
Setup                  1       0.553       0.553     0.15
bands                  1       0.000       0.000     0.00
writewave              1       0.000       0.000     0.00
KSV_init               1       0.000       0.000     0.00
IterGeom               1     371.803     371.803    99.85
state_init             1       0.167       0.167     0.04
hsparse                1       0.000       0.000     0.00
overlap                1       0.160       0.160     0.04
Setup_H0               1       1.980       1.980     0.53
naefs                  2       0.000       0.000     0.00
MolMec                 2       0.000       0.000     0.00
kinefsm                2       0.073       0.147     0.04
nlefsm                 2       0.249       0.498     0.13
DHSCF_Init             1       1.355       1.355     0.36
DHSCF1                 1       0.034       0.034     0.01
INITMESH               1       0.000       0.000     0.00
DHSCF2                 1       1.321       1.321     0.35
REMESH                 1       0.068       0.068     0.02
REORD               1010       0.003       3.353     0.90
PHION                  1       0.704       0.704     0.19
COMM_BSC            1005       0.003       3.346     0.90
POISON               502       0.416     208.835    56.08
fft                 1004       0.190     190.320    51.11
IterSCF              500       0.736     367.875    98.79
setup_H              500       0.723     361.743    97.14
DHSCF                501       0.723     362.317    97.30
DHSCF3               501       0.721     361.374    97.04
rhoofd               501       0.098      49.067    13.18
cellXC               501       0.100      50.341    13.52
vmat                 501       0.062      31.276     8.40
compute_dm           500       0.011       5.391     1.45
diagon               500       0.011       5.320     1.43
c-eigval             500       0.002       1.205     0.32
c-buildHS            500       0.000       0.040     0.01
cdiag               1000       0.004       4.067     1.09
cdiag1              1000       0.000       0.208     0.06
cdiag2              1000       0.001       0.951     0.26
cdiag3              1000       0.003       2.776     0.75
cdiag4              1000       0.000       0.091     0.02
c-eigvec             500       0.006       2.958     0.79
c-buildD             500       0.001       0.544     0.15
MIXER                500       0.000       0.126     0.03
PostSCF                1       1.737       1.737     0.47
DHSCF4                 1       0.942       0.942     0.25
dfscf                  1       0.833       0.833     0.22
overfsm                1       0.003       0.003     0.00
state_analysis         1       0.007       0.007     0.00
siesta_move            1       0.001       0.001     0.00
optical                1       0.000       0.000     0.00
  
>> End of run:  24-OCT-2016  19:35:12
